 &FCI NORB=20,NELEC=30,MS2=0,
  ORBSYM=1,1,1,1,1,1,1,1,1,1,1,1,1,1,1,1,1,1,1,1,
  ISYM=1,
 &END
1.8935085470131774 1 1 1 1
0.0004189063538559094 2 1 1 1
1.9888773119926061e-07 2 1 2 1
0.13894616206035337 2 2 1 1
-0.0004164712855399372 2 2 2 1
1.8934998888383987 2 2 2 2
5.005989134190341e-07 3 1 1 1
1.7926433962698838e-06 3 1 2 2
3.3621017977530316e-07 3 1 3 1
-4.500732870756537e-07 3 2 1 1
1.0614135294566754e-06 3 2 2 2
8.030541400328822e-08 3 2 3 1
3.3198014059127845e-08 3 2 3 2
0.08082244272072157 3 3 1 1
-4.108418707473971e-06 3 3 2 1
0.09973345161149921 3 3 2 2
-5.105005020613051e-07 3 3 3 1
-1.0520942684542748e-06 3 3 3 2
2.2268494056496166 3 3 3 3
-1.5220722277983418e-06 4 1 1 1
-6.815333839316154e-07 4 1 2 2
-1.7373801792336983e-08 4 1 3 1
1.0460137660892006e-06 4 1 3 3
9.282445017021154e-08 4 1 4 1
2.2382548084267168e-07 4 2 1 1
1.8047680776617843e-06 4 2 2 2
2.0316975016673314e-09 4 2 3 2
1.4225602365539893e-06 4 2 3 3
5.153461429493655e-08 4 2 4 1
4.988580252069533e-08 4 2 4 2
9.50140648055646e-06 4 3 1 1
4.409472674111518e-09 4 3 2 1
-9.30980125848525e-06 4 3 2 2
2.225584926861388e-09 4 3 3 1
-0.0010561023216173497 4 3 3 3
-1.3950074908935824e-09 4 3 4 2
1.0708373598849096e-06 4 3 4 3
0.09973362508372735 4 4 1 1
4.649967226360882e-06 4 4 2 1
0.08128384661365268 4 4 2 2
3.7082410938903902e-06 4 4 3 1
6.319314325129457e-07 4 4 3 2
0.1390989524574925 4 4 3 3
-4.430825187446541e-07 4 4 4 1
-1.3652303757722669e-06 4 4 4 2
0.001056257034560784 4 4 4 3
2.226807598580209 4 4 4 4
2.8503386094939234e-06 5 1 1 1
-2.2754689175355343e-08 5 1 3 3
-1.714119255809357e-09 5 1 4 1
-3.1894113524078356e-08 5 1 4 4
1.0767296761655552e-07 5 2 1 1
-2.9736455483892458e-06 5 2 2 2
3.4402756047135665e-08 5 2 3 3
1.0658825349521181e-07 5 2 4 4
7.421464859899572e-07 5 3 1 1
6.022600592625293e-07 5 3 2 2
-2.5292264449141063e-05 5 3 3 3
1.277395850123584e-08 5 3 4 3
7.523513998104321e-08 5 3 4 4
5.554964671051533e-07 5 4 1 1
9.417314155438444e-07 5 4 2 2
2.226869448542156e-07 5 4 3 3
-1.5889958508718252e-08 5 4 4 3
-3.1222263532359726e-05 5 4 4 4
0.13836816566150517 5 5 1 1
-2.0679130153514607e-06 5 5 2 1
0.1470526746773968 5 5 2 2
3.083424360922335e-06 5 5 3 1
1.7335369651989933e-07 5 5 3 2
0.14712628550932308 5 5 3 3
2.5234651694971835e-07 5 5 4 1
1.6364170328504004e-06 5 5 4 2
-3.6493776643261293e-06 5 5 4 3
0.13977687782391585 5 5 4 4
-1.1787759809225567e-06 5 5 5 1
1.075703376383546e-06 5 5 5 2
2.7162398870219313e-05 5 5 5 3
3.063738194090912e-05 5 5 5 4
2.225687952365986 5 5 5 5
1.5784770805344872e-06 6 1 1 1
-5.8969839275561374e-08 6 1 2 2
7.400023268599648e-08 6 1 3 3
-1.4094428696223259e-09 6 1 4 1
7.825493568639902e-08 6 1 4 4
-4.4102820015777975e-07 6 1 5 5
1.5387014854208803e-07 6 2 1 1
-1.145093433975646e-06 6 2 2 2
-1.871441644220718e-07 6 2 3 3
-1.4106826128101713e-07 6 2 4 4
-4.3691018030243467e-08 6 2 5 5
-5.111754036677015e-07 6 3 1 1
-4.343755168245844e-07 6 3 2 2
1.8665227465431726e-05 6 3 3 3
-9.702880728271175e-09 6 3 4 3
-6.233205915057467e-08 6 3 4 4
-1.578755483453602e-05 6 3 5 5
1.1734703140883279e-07 6 4 1 1
3.05034753406257e-07 6 4 2 2
-2.4877389700218503e-08 6 4 3 3
-3.9264329080269025e-09 6 4 4 3
-7.487121819029706e-06 6 4 4 4
8.857695258849504e-06 6 4 5 5
0.00016283829418594514 6 5 1 1
1.6805256571115677e-08 6 5 2 1
9.170211107962812e-05 6 5 2 2
-1.2064590547189373e-08 6 5 3 1
-6.335717501192906e-09 6 5 3 2
-8.199533433086336e-05 6 5 3 3
-1.2361908331540426e-08 6 5 4 1
-6.673484183578835e-09 6 5 4 2
-4.2293577863851305e-08 6 5 4 3
-0.0001649675554265135 6 5 4 4
2.5509954704089818e-08 6 5 5 1
-4.3800427408672455e-08 6 5 5 2
-9.349507116591399e-07 6 5 5 3
5.591973505056903e-07 6 5 5 4
5.329310607953376e-05 6 5 5 5
1.0540107364405038e-09 6 5 6 1
-2.657831807115649e-08 6 5 6 2
1.5420317324526226e-06 6 5 6 3
1.6821128463929148e-06 6 5 6 4
0.11519345300924774 6 5 6 5
0.13840675477891953 6 6 1 1
-2.109474123299931e-06 6 6 2 1
0.14726608503477706 6 6 2 2
3.089409237687023e-06 6 6 3 1
1.7426603827139906e-07 6 6 3 2
0.14736709127839348 6 6 3 3
2.546330075656565e-07 6 6 4 1
1.6407424995751266e-06 6 6 4 2
-3.7371291547071656e-06 6 6 4 3
0.1398434212033642 6 6 4 4
-1.118465576345354e-06 6 6 5 1
1.0427056914360233e-06 6 6 5 2
2.430005229506247e-05 6 6 5 3
2.728864487808807e-05 6 6 5 4
1.9956971385339586 6 6 5 5
-5.00080960880836e-07 6 6 6 1
-8.297771215697948e-09 6 6 6 2
-1.7808364722180408e-05 6 6 6 3
9.915372641622426e-06 6 6 6 4
5.365439054432739e-05 6 6 6 5
2.2264931155591476 6 6 6 6
1.1106591028863574e-06 7 1 1 1
1.1313003838051106e-07 7 1 2 2
4.892138245045317e-08 7 1 3 3
-4.038696871416093e-08 7 1 4 4
1.5351652173241165e-07 7 1 5 5
-1.3275759574643566e-08 7 1 6 5
1.3838072813743988e-07 7 1 6 6
1.2446438880215042e-07 7 2 1 1
1.3911034745860992e-06 7 2 2 2
-1.507119292593795e-07 7 2 3 3
7.456329861382209e-08 7 2 4 4
-1.6258617994796368e-07 7 2 5 5
3.31570787212757e-08 7 2 6 5
-1.4705562961676396e-07 7 2 6 6
-2.770219657946462e-07 7 3 1 1
-2.3466095279365243e-07 7 3 2 2
1.2204649624206872e-05 7 3 3 3
-5.961933338153852e-09 7 3 4 3
-2.3789536975892944e-08 7 3 4 4
-8.435624253992823e-06 7 3 5 5
4.462665530185332e-08 7 3 6 5
-8.316227710924804e-06 7 3 6 6
1.824860746411549e-07 7 4 1 1
3.0644839181624556e-07 7 4 2 2
7.09808584359821e-08 7 4 3 3
-6.479975747348761e-09 7 4 4 3
-1.2733936926414966e-05 7 4 4 4
8.637906630806307e-06 7 4 5 5
4.1886729216016086e-08 7 4 6 5
8.489724708196541e-06 7 4 6 6
8.319581353049562e-05 7 5 1 1
3.822256937328354e-08 7 5 2 1
-7.72821141005201e-05 7 5 2 2
-1.040578660305083e-08 7 5 3 1
-6.480064357781221e-05 7 5 3 3
2.34282610939874e-09 7 5 4 2
7.605633550790664e-08 7 5 4 3
8.560976572728338e-05 7 5 4 4
1.7016979104931007e-08 7 5 5 1
1.8653909693206983e-08 7 5 5 2
-5.769430547806316e-07 7 5 5 3
5.37492955075249e-07 7 5 5 4
2.8843124628987216e-05 7 5 5 5
-1.338751962192495e-08 7 5 6 1
3.354367095220084e-08 7 5 6 2
4.413756692244227e-08 7 5 6 3
4.004930993645392e-08 7 5 6 4
-1.2751941396492913e-08 7 5 6 5
2.4935901395224925e-05 7 5 6 6
-3.1687443591484474e-08 7 5 7 1
-9.135898110879737e-09 7 5 7 2
1.522054831219178e-06 7 5 7 3
1.5998193505905308e-06 7 5 7 4
0.1152032645615217 7 5 7 5
9.4035799364741e-05 7 6 1 1
7.211461147308391e-08 7 6 2 1
-0.00020868654015496557 7 6 2 2
7.414761671308859e-09 7 6 3 1
2.485744102690916e-09 7 6 3 2
0.00021099619880873802 7 6 3 3
-6.170910497374645e-09 7 6 4 1
-3.304958209339847e-09 7 6 4 2
-1.5972665715753371e-07 7 6 4 3
-0.00010494513612913164 7 6 4 4
-1.3077616132666026e-08 7 6 5 1
3.3527187424965724e-08 7 6 5 2
4.303809739789169e-08 7 6 5 3
4.0124661884178245e-08 7 6 5 4
-8.197400176026513e-07 7 6 5 5
1.0865614594306122e-09 7 6 6 1
3.370049160806503e-08 7 6 6 2
-4.562526965591987e-07 7 6 6 3
3.892472114706667e-07 7 6 6 4
2.497118916844654e-06 7 6 6 5
-1.0418421860977762e-06 7 6 6 6
-2.947474788407393e-08 7 6 7 1
-2.178669944913455e-08 7 6 7 2
-9.256184374193693e-07 7 6 7 3
6.049635017154375e-07 7 6 7 4
2.9643551231588046e-06 7 6 7 5
0.11522425895444274 7 6 7 6
0.13827075079655712 7 7 1 1
-2.1254210884262188e-06 7 7 2 1
0.14719716788902035 7 7 2 2
3.0768618311800265e-06 7 7 3 1
1.7390828298952656e-07 7 7 3 2
0.1472694722126217 7 7 3 3
2.524932461709074e-07 7 7 4 1
1.6338463291745017e-06 7 7 4 2
-3.7629490309608926e-06 7 7 4 3
0.1396962285095565 7 7 4 4
-1.1504883889541113e-06 7 7 5 1
1.0603709581221728e-06 7 7 5 2
2.428075979536528e-05 7 7 5 3
2.7209215710988005e-05 7 7 5 4
1.9957785743307868 7 7 5 5
-4.967016560715272e-07 7 7 6 1
-2.0827274618019504e-08 7 7 6 2
-1.5781155653507177e-05 7 7 6 3
8.905391477938644e-06 7 7 6 4
4.755449480098635e-05 7 7 6 5
1.9961375103237722 7 7 6 6
2.01281951249127e-07 7 7 7 1
-1.6527778079145848e-07 7 7 7 2
-9.322691020871754e-06 7 7 7 3
9.743871681503428e-06 7 7 7 4
2.6952684950855395e-05 7 7 7 5
-9.913713004703705e-07 7 7 7 6
2.226677518410674 7 7 7 7
-3.5570702056307325e-06 8 1 1 1
6.8485688320462e-08 8 1 2 2
1.0221425362409644e-07 8 1 3 3
1.6930311408185796e-09 8 1 4 1
3.8647307609244485e-08 8 1 4 4
1.8037770801850457e-07 8 1 5 5
1.7775557507582624e-07 8 1 6 6
1.7846184386407018e-07 8 1 7 7
1.5730072813022214e-08 8 2 1 1
2.8847491905768367e-06 8 2 2 2
-1.0850028035739066e-09 8 2 3 2
-2.6060454466963257e-08 8 2 3 3
-1.898392472656613e-08 8 2 4 4
-4.070952988408806e-08 8 2 5 5
-3.8992723090026875e-08 8 2 6 6
-3.9362344856435194e-08 8 2 7 7
-8.760213782859509e-07 8 3 1 1
-5.397529233368384e-07 8 3 2 2
2.8451172498546086e-05 8 3 3 3
-1.451881796267913e-08 8 3 4 3
-2.0370317935410553e-07 8 3 4 4
-2.4916240268723157e-07 8 3 5 5
2.8545909520550033e-09 8 3 6 5
-2.27629597925517e-07 8 3 6 6
3.0104891956489296e-09 8 3 7 5
2.063895533386425e-09 8 3 7 6
-2.291998334375724e-07 8 3 7 7
-2.7373503582238006e-07 8 4 1 1
-3.57023712963747e-07 8 4 2 2
-9.509737126450735e-08 8 4 3 3
5.934191123977232e-09 8 4 4 3
1.162214102408287e-05 8 4 4 4
-2.4751797376179114e-07 8 4 5 5
-1.6879596895261954e-09 8 4 6 5
-2.3282238199268375e-07 8 4 6 6
-2.3309775286843595e-07 8 4 7 7
2.3328231623940196e-05 8 5 1 1
1.1131903848725313e-08 8 5 2 1
-2.3440615958933004e-05 8 5 2 2
4.633483882362021e-09 8 5 3 1
-2.13076820750368e-05 8 5 3 3
-2.047101677727468e-09 8 5 4 2
2.2285682252941693e-08 8 5 4 3
2.2761435735802686e-05 8 5 4 4
3.143755441964701e-09 8 5 5 1
-2.3879486602781114e-09 8 5 5 2
-7.633330477430777e-08 8 5 5 3
-8.529505037137947e-08 8 5 5 4
-0.005768268478409044 8 5 5 5
1.3285173843604218e-09 8 5 6 1
4.375455584686134e-08 8 5 6 3
-2.46306402498312e-08 8 5 6 4
9.703676945079965e-06 8 5 6 5
-0.005131224583350718 8 5 6 6
2.369394789135171e-08 8 5 7 3
-2.346311887989944e-08 8 5 7 4
3.322248994371077e-05 8 5 7 5
2.6052956437948973e-08 8 5 7 6
-0.0051312142224162645 8 5 7 7
3.880423814207375e-09 8 5 8 1
-3.457242604721179e-09 8 5 8 2
-9.171559813605063e-08 8 5 8 3
-4.3146519724251126e-08 8 5 8 4
5.13639920457957e-05 8 5 8 5
-1.0889379577289229e-06 8 6 1 1
6.291291777081564e-07 8 6 2 2
8.017173502965301e-07 8 6 3 3
-3.613071853498786e-07 8 6 4 4
4.789766571453377e-09 8 6 5 3
0.00016086550529835085 8 6 5 5
-5.991061686119156e-09 8 6 6 3
-3.7098553805916843e-09 8 6 6 4
-0.00032065222689950135 8 6 6 5
0.0001811221557795372 8 6 6 6
-1.115179314260349e-09 8 6 7 3
1.927429531812266e-08 8 6 7 5
3.384012162199059e-05 8 6 7 6
0.00016101209476091438 8 6 7 7
4.572490339586134e-09 8 6 8 3
2.5039867610330284e-09 8 6 8 4
-3.850944450307757e-06 8 6 8 5
1.3682163848783944e-06 8 6 8 6
-2.887768450556705e-06 8 7 1 1
-1.2995310896854624e-09 8 7 2 1
2.5726453340731778e-06 8 7 2 2
2.7967734658266904e-06 8 7 3 3
-2.7292752254262723e-09 8 7 4 3
-2.6005023390511253e-06 8 7 4 4
8.743751767574033e-09 8 7 5 3
6.498015292101503e-09 8 7 5 4
0.0005404538363292459 8 7 5 5
-4.74866006992686e-09 8 7 6 3
2.5381951658624223e-09 8 7 6 4
3.6376808935398714e-08 8 7 6 5
0.000541007380925763 8 7 6 6
-7.044684820032516e-09 8 7 7 3
-1.5697154993670034e-09 8 7 7 4
-0.0003204836235879434 8 7 7 5
1.0053040734024937e-05 8 7 7 6
0.000608507246642079 8 7 7 7
7.55855078380238e-09 8 7 8 3
4.057138688351907e-09 8 7 8 4
-3.151354774946604e-06 8 7 8 5
1.0169908098834098e-07 8 7 8 6
1.322905213127951e-06 8 7 8 7
0.1472151068963227 8 8 1 1
1.8614878895186157e-06 8 8 2 1
0.13938827275611643 8 8 2 2
4.687677338674427e-06 8 8 3 1
2.0017815479936234e-07 8 8 3 2
0.13872758808040542 8 8 3 3
8.241833483003367e-08 8 8 4 1
8.757878054583581e-07 8 8 4 2
4.5534650062874245e-06 8 8 4 3
0.14760113159091667 8 8 4 4
-5.5416493322001765e-08 8 8 5 1
2.235856309097357e-07 8 8 5 2
-5.683679119547353e-08 8 8 5 3
-2.5316200122840818e-08 8 8 5 4
0.15283882843903207 8 8 5 5
3.4385187873048184e-08 8 8 6 1
-1.5872360254432637e-08 8 8 6 2
-1.4224961203644795e-07 8 8 6 3
-5.543295054814839e-08 8 8 6 4
-5.792746013957181e-05 8 8 6 5
0.15205966470050233 8 8 6 6
4.9374988108318434e-08 8 8 7 1
-6.654380042407796e-08 8 8 7 2
-8.695507306200792e-08 8 8 7 3
3.8886422254819106e-08 8 8 7 4
-0.0001173334570487162 8 8 7 5
2.9430784848890586e-06 8 8 7 6
0.15208315244554846 8 8 7 7
1.3038037972145497e-06 8 8 8 1
-1.1655665203932242e-06 8 8 8 2
-2.7674599703127967e-05 8 8 8 3
-1.2641005687689435e-05 8 8 8 4
0.005771740030135708 8 8 8 5
-0.00018097985990620904 8 8 8 6
-0.0006090109162876648 8 8 8 7
2.2263528861097464 8 8 8 8
-1.25155594145222e-06 9 1 1 1
1.716023618467054e-07 9 1 2 2
-1.4424288138477355e-07 9 1 3 3
1.3420734010946966e-09 9 1 4 1
-2.008929821128603e-07 9 1 4 4
-5.146705309981604e-08 9 1 5 5
-5.075262801222303e-08 9 1 6 6
-5.119203688467399e-08 9 1 7 7
3.5711340217509875e-09 9 1 8 8
-1.3274125499377384e-07 9 2 1 1
6.732576364644636e-07 9 2 2 2
1.039146816902736e-07 9 2 3 3
7.020568190571868e-08 9 2 4 4
7.83959218092006e-08 9 2 5 5
7.832951944843796e-08 9 2 6 6
7.909297923638263e-08 9 2 7 7
-1.354963853227013e-07 9 2 8 8
6.797225246973354e-07 9 3 1 1
4.5976273594798604e-07 9 3 2 2
-2.28292069038154e-05 9 3 3 3
1.1757950120131793e-08 9 3 4 3
1.2690718624641962e-07 9 3 4 4
5.14379654816804e-07 9 3 5 5
-1.5115209236680696e-08 9 3 6 5
4.7037078792332456e-07 9 3 6 6
-8.338376354833926e-09 9 3 7 5
4.674764419785502e-07 9 3 7 7
7.01844313399027e-08 9 3 8 5
-4.5060430879895315e-09 9 3 8 6
-5.329760979156522e-09 9 3 8 7
1.871424545898973e-05 9 3 8 8
3.5202296995167944e-07 9 4 1 1
4.108059535646898e-07 9 4 2 2
5.4665896278812344e-08 9 4 3 3
-7.4316121049961845e-09 9 4 4 3
-1.4786938069693359e-05 9 4 4 4
5.222445803339464e-07 9 4 5 5
4.4326574272501235e-09 9 4 6 5
4.709724077411516e-07 9 4 6 6
5.524294574731422e-09 9 4 7 5
4.7293677228857453e-07 9 4 7 7
4.123543273924141e-08 9 4 8 5
-2.486218612490884e-09 9 4 8 6
-3.370875289570808e-09 9 4 8 7
1.1838095432279947e-05 9 4 8 8
-0.00011720262545248446 9 5 1 1
-5.1289959119415335e-08 9 5 2 1
9.831475274302348e-05 9 5 2 2
-2.082558410512078e-08 9 5 3 1
0.00010697508852942764 9 5 3 3
2.1860232240349946e-09 9 5 4 1
9.785350799498448e-09 9 5 4 2
-1.0628340261829026e-07 9 5 4 3
-0.00010321295962806217 9 5 4 4
-1.4511678190979226e-08 9 5 5 1
1.1066549591851261e-08 9 5 5 2
3.5258270994221815e-07 9 5 5 3
3.939542936185567e-07 9 5 5 4
0.026684712800566238 9 5 5 5
-6.102893450600172e-09 9 5 6 1
-2.0449464636742864e-07 9 5 6 3
1.1144457503317555e-07 9 5 6 4
-0.00022238538283798835 9 5 6 5
0.023734940636330866 9 5 6 6
1.3670831388982748e-09 9 5 7 1
-1.3107543977243107e-09 9 5 7 2
-1.0753518608534029e-07 9 5 7 3
1.106915726745391e-07 9 5 7 4
4.670053641354444e-06 9 5 7 5
-8.003288944532925e-08 9 5 7 6
0.02373571622627835 9 5 7 7
-1.391394472248707e-08 9 5 8 1
1.379711240985227e-08 9 5 8 2
3.172261605343147e-07 9 5 8 3
1.4514776908726642e-07 9 5 8 4
-0.00014442929364052933 9 5 8 5
5.386609004596817e-06 9 5 8 6
1.3907140126294732e-05 9 5 8 7
-0.0237228857746071 9 5 8 8
-1.4485698123190987e-09 9 5 9 1
3.1576670191538144e-09 9 5 9 2
-2.685288941691555e-07 9 5 9 3
-1.6641361269146655e-07 9 5 9 4
0.0006885198889186741 9 5 9 5
1.9587859359452597e-05 9 6 1 1
8.011686506811254e-09 9 6 2 1
-1.4083805322260985e-05 9 6 2 2
2.968966498977306e-09 9 6 3 1
-1.7751090469842558e-05 9 6 3 3
-1.5714451569296804e-09 9 6 4 2
1.5717630407021017e-08 9 6 4 3
1.334230308311073e-05 9 6 4 4
2.4256943504063457e-09 9 6 5 1
-2.2177543790796422e-09 9 6 5 2
-5.94286541846781e-08 9 6 5 3
-4.5937415342282037e-08 9 6 5 4
-0.0035817210607340926 9 6 5 5
1.0614833625289203e-09 9 6 6 1
5.419415566293786e-08 9 6 6 3
2.291218349314565e-09 9 6 6 4
0.0014824183165012652 9 6 6 5
-0.0040314625556691725 9 6 6 6
1.6547921262488322e-08 9 6 7 3
-1.5880425194204068e-08 9 6 7 4
-2.962373834705929e-07 9 6 7 5
2.873072828581696e-06 9 6 7 6
-0.0035841648147091937 9 6 7 7
2.0264862376433627e-09 9 6 8 1
-2.0443722106429437e-09 9 6 8 2
-4.746428549938768e-08 9 6 8 3
-2.1702795112732396e-08 9 6 8 4
2.0184984243196404e-05 9 6 8 5
-4.810021688340351e-06 9 6 8 6
-2.100904726918986e-06 9 6 8 7
0.00357776892971875 9 6 8 8
3.978024589541009e-08 9 6 9 3
2.5079053365520614e-08 9 6 9 4
-0.0001008248941987474 9 6 9 5
3.4730144315030894e-05 9 6 9 6
4.922730801679141e-07 9 7 1 1
-3.3805692143230513e-07 9 7 2 2
-1.095246596099313e-06 9 7 3 3
1.200871658059028e-09 9 7 4 3
1.2791784039335509e-06 9 7 4 4
-6.912249336700882e-09 9 7 5 3
7.499327070540765e-09 9 7 5 4
4.5771848405409185e-05 9 7 5 5
1.068299640038258e-09 9 7 6 3
-2.935037881522962e-08 9 7 6 5
4.575095433336783e-05 9 7 6 6
2.116438974376993e-08 9 7 7 3
1.9651719438347302e-08 9 7 7 4
0.0014827457656882536 9 7 7 5
-0.00022390681556291658 9 7 7 6
5.146132592129923e-05 9 7 7 7
6.102751707556161e-07 9 7 8 5
-1.2315703202969195e-07 9 7 8 6
-4.1152778004501075e-06 9 7 8 7
-4.6812553106391056e-05 9 7 8 8
1.3122537797140806e-06 9 7 9 5
-1.9010692737734788e-07 9 7 9 6
1.96046551009968e-05 9 7 9 7
9.010670305452585e-05 9 8 1 1
-1.7438441421489076e-08 9 8 2 1
0.00016281632804587213 9 8 2 2
-1.3592897458989317e-08 9 8 3 1
-7.058849101783968e-09 9 8 3 2
-0.00016259328829990887 9 8 3 3
-1.09944448493347e-08 9 8 4 1
-6.013597732571949e-09 9 8 4 2
3.686336774269292e-08 9 8 4 3
-8.918471053558742e-05 9 8 4 4
2.345331870911166e-08 9 8 5 3
1.153118042373619e-08 9 8 5 4
-8.530450121389762e-05 9 8 5 5
-3.664117217130476e-09 9 8 6 3
-1.2021798939537753e-09 9 8 6 4
3.5704615789461978e-06 9 8 6 5
-6.90797527261958e-05 9 8 6 6
8.388288540056405e-07 9 8 7 5
-7.963726824497868e-07 9 8 7 6
-6.890135897850085e-05 9 8 7 7
-5.824990286215432e-08 9 8 8 1
2.8148955901348814e-08 9 8 8 2
1.1428057544346874e-06 9 8 8 3
7.215213253947015e-07 9 8 8 4
-0.0014822021649615435 9 8 8 5
0.00022351609133647754 9 8 8 6
-2.868519881173624e-06 9 8 8 7
7.494848466656865e-05 9 8 8 8
-3.083932637766971e-08 9 8 9 1
-3.524885090492237e-09 9 8 9 2
-1.521058581364092e-06 9 8 9 3
-7.608541350451722e-07 9 8 9 4
0.0003185754808023823 9 8 9 5
-9.752320082487878e-06 9 8 9 6
-3.3800158034564705e-05 9 8 9 7
0.11519179562402386 9 8 9 8
0.14744368984609196 9 9 1 1
1.9033914485769444e-06 9 9 2 1
0.13944098554526327 9 9 2 2
4.699474981715568e-06 9 9 3 1
2.0032348117797402e-07 9 9 3 2
0.13878969490336227 9 9 3 3
8.271432851241198e-08 9 9 4 1
8.76326125370161e-07 9 9 4 2
4.635416111425764e-06 9 9 4 3
0.1478243883043206 9 9 4 4
-5.4958489501211426e-08 9 9 5 1
2.2224618115765325e-07 9 9 5 2
-8.040436430139607e-08 9 9 5 3
-4.638942916874707e-08 9 9 5 4
0.15274616975441205 9 9 5 5
3.476811799668491e-08 9 9 6 1
-1.5982071843842224e-08 9 9 6 2
-1.3573076212965694e-07 9 9 6 3
-5.3935378484109175e-08 9 9 6 4
-6.915760569827572e-05 9 9 6 5
0.151905031849634 9 9 6 6
4.914642824907121e-08 9 9 7 1
-6.564695386538775e-08 9 9 7 2
-8.629535019270631e-08 9 9 7 3
3.6222219744674063e-08 9 9 7 4
-0.00011381351756582733 9 9 7 5
2.843133635852601e-06 9 9 7 6
0.15192452091568154 9 9 7 7
1.2518203218688141e-06 9 9 8 1
-1.107618330887407e-06 9 9 8 2
-2.46483445642992e-05 9 9 8 3
-1.137059959687916e-05 9 9 8 4
0.0051292845719748325 9 9 8 5
-0.0001608142470627672 9 9 8 6
-0.0005411089103292205 9 9 8 7
1.9956763038978163 9 9 8 8
6.182910908534298e-08 9 9 9 1
-1.6951826552336586e-07 9 9 9 2
2.100963454628238e-05 9 9 9 3
1.3322707706037445e-05 9 9 9 4
-0.026686135667518002 9 9 9 5
0.004024918696641813 9 9 9 6
-5.243702722869105e-05 9 9 9 7
7.496987637919124e-05 9 9 9 8
2.2257797878184467 9 9 9 9
1.5723792449991233e-06 10 1 1 1
1.4312907350959822e-07 10 1 2 2
6.95464135960413e-08 10 1 3 3
-1.5560957572791991e-07 10 1 4 4
-6.015560119335681e-08 10 1 5 5
-5.923605908183283e-08 10 1 6 6
-5.920372518341278e-08 10 1 7 7
-2.39570152993473e-07 10 1 8 8
2.2434837312855976e-09 10 1 9 5
3.3203145469271314e-08 10 1 9 8
-2.2760321185063562e-07 10 1 9 9
8.218169244429848e-08 10 2 1 1
1.1684419378787496e-06 10 2 2 2
-1.3113113804531025e-08 10 2 3 3
5.012052988504611e-08 10 2 4 4
5.5417677281605546e-08 10 2 5 5
5.496427253241706e-08 10 2 6 6
5.482125911470451e-08 10 2 7 7
1.5980296537878622e-07 10 2 8 8
-1.1413436561991405e-09 10 2 9 5
-1.2969823879129502e-08 10 2 9 8
1.3961088799459665e-07 10 2 9 9
-3.327097712221845e-07 10 3 1 1
-2.0351056637341462e-07 10 3 2 2
1.3449766050462701e-05 10 3 3 3
-6.669494103903295e-09 10 3 4 3
-7.379016211368535e-08 10 3 4 4
-4.7927469043086015e-08 10 3 5 5
-3.9201236571014374e-08 10 3 6 6
1.8014345252722552e-09 10 3 7 6
-3.931470524120041e-08 10 3 7 7
-2.680725698642874e-08 10 3 8 5
1.5764820319560318e-09 10 3 8 7
-9.283288905259412e-06 10 3 8 8
1.1808690980201582e-07 10 3 9 5
-1.7587154346743353e-08 10 3 9 6
1.0900158795611362e-09 10 3 9 7
-4.271839017529446e-08 10 3 9 8
-9.13318040679148e-06 10 3 9 9
2.1746333985255865e-07 10 4 1 1
2.6162689150836164e-07 10 4 2 2
6.581171282194081e-09 10 4 3 3
-5.911628889065339e-09 10 4 4 3
-1.1565544013702994e-05 10 4 4 4
3.483078595143985e-08 10 4 5 5
3.479234079702048e-08 10 4 6 6
-2.7749473095718385e-09 10 4 7 5
3.47351053013693e-08 10 4 7 7
2.1455057798793783e-08 10 4 8 5
-2.8334867516427212e-09 10 4 8 7
7.81408926031282e-06 10 4 8 8
-9.785351932004396e-08 10 4 9 5
1.4878851831278031e-08 10 4 9 6
-4.698342891898524e-08 10 4 9 8
7.685717316940687e-06 10 4 9 9
1.2777594229576674e-05 10 5 1 1
5.39964262224408e-09 10 5 2 1
-9.911580349173327e-06 10 5 2 2
1.9683712876734173e-09 10 5 3 1
-8.162391327080972e-06 10 5 3 3
7.252620396235412e-09 10 5 4 3
6.191062932040353e-06 10 5 4 4
1.2870635574740061e-09 10 5 5 1
-1.0044688647960367e-09 10 5 5 2
-3.0928870730098226e-08 10 5 5 3
-3.563359415260998e-08 10 5 5 4
-0.002385961370131079 10 5 5 5
1.7929602960166087e-08 10 5 6 3
-1.0358982664708038e-08 10 5 6 4
-5.008134733946396e-06 10 5 6 5
-0.002122052795209698 10 5 6 6
8.386223318923278e-09 10 5 7 3
-1.1170679464122852e-08 10 5 7 4
-9.194142531912425e-05 10 5 7 5
8.227061625888873e-09 10 5 7 6
-0.00212218263729312 10 5 7 7
-1.0443197725847367e-09 10 5 8 2
-2.9066544079964402e-08 10 5 8 3
-1.0599245090196541e-08 10 5 8 4
1.2883041633110057e-05 10 5 8 5
-3.4275112121857056e-07 10 5 8 6
-7.343359121084306e-07 10 5 8 7
0.0021203676759406938 10 5 8 8
2.634579099491489e-08 10 5 9 3
7.412976457343873e-09 10 5 9 4
-5.9709405319401794e-05 10 5 9 5
8.113314133953867e-06 10 5 9 6
-2.4680195684532886e-06 10 5 9 7
1.4107078251025464e-07 10 5 9 8
0.002120372836787746 10 5 9 9
-2.9874199568002514e-08 10 5 10 3
2.5541565978716437e-05 10 5 10 5
-2.566022023060718e-07 10 6 1 1
-6.464340629947715e-08 10 6 2 2
-6.668507597842167e-07 10 6 3 3
9.998749374497376e-07 10 6 4 4
-1.8463982364878877e-09 10 6 5 4
-7.818080898663913e-05 10 6 5 5
-2.6639723356461075e-09 10 6 6 4
-0.00013252387232582063 10 6 6 5
-8.797928446590555e-05 10 6 6 6
1.0344240605404917e-09 10 6 7 3
-7.07472759447058e-09 10 6 7 5
-9.171095679814152e-05 10 6 7 6
-7.821243641118306e-05 10 6 7 7
-1.0630289365598698e-09 10 6 8 3
4.123459258716121e-07 10 6 8 5
3.2691865946699237e-07 10 6 8 6
-6.18988201308849e-08 10 6 8 7
7.817075046611832e-05 10 6 8 8
1.2942698937051523e-09 10 6 9 4
-1.4978501487244742e-06 10 6 9 5
-1.375756382701879e-06 10 6 9 6
3.523006286943856e-07 10 6 9 7
-1.9167847208411955e-08 10 6 9 8
7.817757271397648e-05 10 6 9 9
1.78269887790908e-09 10 6 10 3
1.7176478734240746e-09 10 6 10 4
-2.7086808900629294e-06 10 6 10 5
6.676302436072889e-07 10 6 10 6
7.15578072652153e-06 10 7 1 1
3.1810404900407187e-09 10 7 2 1
-6.211109440993859e-06 10 7 2 2
1.2844643540765618e-09 10 7 3 1
-6.81795232607886e-06 10 7 3 3
6.648234967825444e-09 10 7 4 3
6.330049666055546e-06 10 7 4 4
-1.8726319267835885e-08 10 7 5 3
-2.232406448869898e-08 10 7 5 4
-0.0014688131537547234 10 7 5 5
1.242964013180474e-08 10 7 6 3
-7.203117810167702e-09 10 7 6 4
-8.054003446023572e-08 10 7 6 5
-0.0014696071885010177 10 7 6 6
5.652995190590337e-09 10 7 7 3
-9.594995953344444e-09 10 7 7 4
-0.00013270314328663776 10 7 7 5
-4.882650305318354e-06 10 7 7 6
-0.001653423326567579 10 7 7 7
-1.9177679955755693e-08 10 7 8 3
-8.968054560843563e-09 10 7 8 4
8.090689701158294e-06 10 7 8 5
-2.5908978611026854e-07 10 7 8 6
-5.737580486714771e-07 10 7 8 7
0.0014660372615406378 10 7 8 8
1.4490517072462609e-08 10 7 9 3
8.991846072361602e-09 10 7 9 4
-3.778698691820466e-05 10 7 9 5
5.701052690315831e-06 10 7 9 6
-1.7775052906587126e-06 10 7 9 7
1.0680979191267165e-07 10 7 9 8
0.0014660591314180622 10 7 9 9
-7.886040650350403e-09 10 7 10 3
6.998068084340253e-09 10 7 10 4
3.6357191840524135e-06 10 7 10 5
1.3358261765125494e-07 10 7 10 6
2.7918370660951867e-06 10 7 10 7
-7.171321537976931e-05 10 8 1 1
-3.8004738850770815e-08 10 8 2 1
8.804440283841836e-05 10 8 2 2
4.14694449222329e-09 10 8 3 1
8.330824846731225e-05 10 8 3 3
-4.1656093394590425e-09 10 8 4 2
-7.939631624655229e-08 10 8 4 3
-7.334764301596888e-05 10 8 4 4
-5.235241578564774e-09 10 8 5 3
-0.00010684054510550404 10 8 5 5
1.587982400682488e-09 10 8 6 3
5.99946532666571e-08 10 8 6 5
-0.00010540520837605714 10 8 6 6
-7.377231022116298e-07 10 8 7 5
1.1317869212090089e-08 10 8 7 6
-0.00010444454270483156 10 8 7 7
1.753029410756789e-08 10 8 8 1
1.9853448467772846e-08 10 8 8 2
-5.81767435515865e-07 10 8 8 3
5.476709420083567e-07 10 8 8 4
0.00013271938890515157 10 8 8 5
4.877735759982707e-06 10 8 8 6
9.156469015628212e-05 10 8 8 7
2.3332008903002223e-05 10 8 8 8
3.364651975022675e-08 10 8 9 1
-1.3052424806446422e-08 10 8 9 2
-4.179273366743429e-08 10 8 9 3
-4.676129449328813e-08 10 8 9 4
-1.633117468314415e-06 10 8 9 5
2.1745293752143586e-07 10 8 9 6
-1.2652108192872216e-08 10 8 9 7
1.6975222213450061e-06 10 8 9 8
1.9989121308463208e-05 10 8 9 9
9.355463867491098e-09 10 8 10 1
-2.9017833584608752e-08 10 8 10 2
-1.4350919101108429e-06 10 8 10 3
-7.013050442325205e-07 10 8 10 4
0.00032087706178787707 10 8 10 5
-1.0045888307778761e-05 10 8 10 6
-3.3781381938412606e-05 10 8 10 7
0.11522084643663483 10 8 10 8
-0.0002091323376052662 10 9 1 1
-7.424189976007283e-08 10 9 2 1
0.00010285274082291466 10 9 2 2
-8.728048524878647e-09 10 9 3 1
-3.6262250587530365e-09 10 9 3 2
-0.00010034738288783142 10 9 3 3
5.300644030745651e-09 10 9 4 1
2.415086224134678e-09 10 9 4 2
1.581641688810515e-07 10 9 4 3
0.0002118120787762784 10 9 4 4
7.553635584598126e-09 10 9 5 3
-8.098616069170542e-09 10 9 5 4
-3.339662840303127e-05 10 9 5 5
-1.4647792504028022e-09 10 9 6 3
-2.627828204237653e-07 10 9 6 5
-2.6510057885199802e-05 10 9 6 6
-2.370017024522863e-06 10 9 7 5
-6.453667193413773e-08 10 9 7 6
-2.6586961880395815e-05 10 9 7 7
3.355654450623593e-08 10 9 8 1
-1.2782847096604427e-08 10 9 8 2
-4.1207893341916836e-08 10 9 8 3
-4.706300848917292e-08 10 9 8 4
1.3567115909359565e-07 10 9 8 5
-2.522591964309293e-08 10 9 8 6
-9.40943541385696e-09 10 9 8 7
2.7389926140148572e-05 10 9 8 8
2.87752246452162e-08 10 9 9 1
-1.1476818251421093e-09 10 9 9 2
-4.326094091845565e-07 10 9 9 3
4.2033314354100526e-07 10 9 9 4
0.00013178591439798852 10 9 9 5
4.988105238882848e-06 10 9 9 6
9.166946530879421e-05 10 9 9 7
2.1969282453096464e-06 10 9 9 8
3.0825700868656904e-05 10 9 9 9
-6.736664669619615e-09 10 9 10 1
-1.7844527079259384e-08 10 9 10 2
1.082544524617666e-06 10 9 10 3
6.683037044672864e-07 10 9 10 4
-0.0014826881964999424 10 9 10 5
0.00022356466450383977 10 9 10 6
-2.7843317855517553e-06 10 9 10 7
4.144482581352604e-06 10 9 10 8
0.11520354477334271 10 9 10 9
0.14735236009353886 10 10 1 1
1.914060865415395e-06 10 10 2 1
0.13930489623502496 10 10 2 2
4.676964477406324e-06 10 10 3 1
1.997022722507541e-07 10 10 3 2
0.1386447157959985 10 10 3 3
8.142403444989297e-08 10 10 4 1
8.738188834910371e-07 10 10 4 2
4.667540066882033e-06 10 10 4 3
0.1477442987562139 10 10 4 4
-5.491741944325035e-08 10 10 5 1
2.2263340663207832e-07 10 10 5 2
-5.397621426211077e-08 10 10 5 3
-2.8927643065470123e-08 10 10 5 4
0.1523890351708663 10 10 5 5
3.4866556497043415e-08 10 10 6 1
-1.604016707174982e-08 10 10 6 2
-1.3901357787699513e-07 10 10 6 3
-5.793409683653333e-08 10 10 6 4
-5.765539382783397e-05 10 10 6 5
0.15161946857769634 10 10 6 6
4.855162191460385e-08 10 10 7 1
-6.547832916428285e-08 10 10 7 2
-8.676136838859963e-08 10 10 7 3
3.6258789910227914e-08 10 10 7 4
-0.00011252267981728361 10 10 7 5
2.8587169425638166e-06 10 10 7 6
0.1516427248943988 10 10 7 7
1.2919992307644907e-06 10 10 8 1
-1.13293893962529e-06 10 10 8 2
-2.456569354776024e-05 10 10 8 3
-1.1312717492513009e-05 10 10 8 4
0.005131528071700246 10 10 8 5
-0.00016089360907866137 10 10 8 6
-0.0005413764094965363 10 10 8 7
1.9960635682127177 10 10 8 8
5.58459287800524e-08 10 10 9 1
-1.8209838730853995e-07 10 10 9 2
1.865624557715031e-05 10 10 9 3
1.1785719423694078e-05 10 10 9 4
-0.023730384917486042 10 10 9 5
0.003578886983839403 10 10 9 6
-4.67680000839344e-05 10 10 9 7
6.664190562942554e-05 10 10 9 8
1.9958096550586844 10 10 9 9
-2.4766505425559965e-07 10 10 10 1
2.0145152326935167e-07 10 10 10 2
-1.0448367891475695e-05 10 10 10 3
8.601483374524417e-06 10 10 10 4
0.0023861554051102835 10 10 10 5
8.795087873214638e-05 10 10 10 6
0.0016496569241841333 10 10 10 7
2.147164911080146e-05 10 10 10 8
3.085914367847502e-05 10 10 10 9
2.226652262500482 10 10 10 10
-0.0008231473694886574 11 1 1 1
-1.7107513825260858e-07 11 1 2 1
-0.00011586624455169726 11 1 2 2
5.133148408199896e-07 11 1 3 1
-1.928671196108196e-05 11 1 3 3
-7.798343119686965e-07 11 1 4 1
1.2608273002419413e-08 11 1 4 3
5.563955387522981e-06 11 1 4 4
3.4266150656012074e-08 11 1 5 1
-5.78365007664257e-05 11 1 5 5
1.3226133419334664e-08 11 1 6 1
-2.6329366652184597e-07 11 1 6 5
-5.813409572343858e-05 11 1 6 6
4.9467031140668425e-08 11 1 7 1
4.181437490659146e-08 11 1 7 5
-3.0950225274784224e-09 11 1 7 6
-5.7582325308173444e-05 11 1 7 7
-4.1909531724718004e-08 11 1 8 1
1.8192850992083986e-08 11 1 8 5
-1.4817631033917218e-09 11 1 8 7
-5.2652116398162556e-05 11 1 8 8
7.472339760532915e-09 11 1 9 1
-6.114470789291806e-08 11 1 9 5
6.487769638333735e-09 11 1 9 6
-2.730295326154561e-07 11 1 9 8
-5.3089949367695554e-05 11 1 9 9
6.129898191301592e-08 11 1 10 1
5.252313444244612e-09 11 1 10 5
4.058678474684586e-09 11 1 10 7
1.269514091763123e-07 11 1 10 8
1.0380419999648633e-07 11 1 10 9
-5.2370480388829446e-05 11 1 10 10
9.483710828554634e-05 11 1 11 1
0.00010926727357874438 11 2 1 1
-1.4197777121329033e-07 11 2 2 1
0.0007146323954200215 11 2 2 2
1.564910620711845e-09 11 2 3 1
4.7313202971123975e-07 11 2 3 2
-5.140345863122794e-06 11 2 3 3
-2.2346474570500967e-09 11 2 4 1
1.1407650849711625e-07 11 2 4 2
1.2529988838760666e-08 11 2 4 3
1.9589439839215964e-05 11 2 4 4
1.982458934134102e-08 11 2 5 2
5.1989263220719316e-05 11 2 5 5
3.693715667054858e-09 11 2 6 2