 &FCI NORB=20,NELEC=30,MS2=0,   
   ORBSYM=1,1,1,1,1,1,1,1,1,1,1,1,1,1,1,1,1,1,1,1,
   ISYM=1,
  &END
 0.2935551741312518 1 1 1 1
-0.007295396655973519 2 1 1 1
0.006389264137965101 2 1 2 1
0.22472842891744696 2 2 1 1
-0.0029118247715372828 2 2 2 1
0.21088124761568458 2 2 2 2
-0.0029089596931388224 3 1 1 1
0.00014852014210870698 3 1 2 1
-0.000972978480415019 3 1 2 2
0.003313583345951805 3 1 3 1
-0.0015031627228608176 3 2 1 1
0.0007083355475587101 3 2 2 1
0.0022308768558894515 3 2 2 2
0.005514042411774403 3 2 3 1
0.04645076105805299 3 2 3 2
0.16880934875260006 3 3 1 1
0.0012498010882661592 3 3 2 1
0.17952397131168876 3 3 2 2
0.0004782612203613763 3 3 3 1
-0.002459386449298942 3 3 3 2
0.18563636618877744 3 3 3 3
0.02085497786963866 4 1 1 1
-0.002037628236043002 4 1 2 1
0.007030715859385435 4 1 2 2
-0.0005875684522088321 4 1 3 1
-1.734398213379021e-05 4 1 3 2
-0.0032731523166150797 4 1 3 3
0.005114704415016597 4 1 4 1
-0.003182724480057223 4 2 1 1
-0.003860865425134719 4 2 2 1
-0.0017324908644230927 4 2 2 2
0.00015061780029775994 4 2 3 1
0.00248824858803055 4 2 3 2
-0.0005368245067488723 4 2 3 3
0.0015445029126370687 4 2 4 1
0.0212125266791503 4 2 4 2
-0.001069201278111171 4 3 1 1
-0.00010048140917229986 4 3 2 1
0.00027570550810638716 4 3 2 2
-0.009093140070770724 4 3 3 1
0.0013247381417739906 4 3 3 2
-0.003631463068422851 4 3 3 3
0.00045057679216643667 4 3 4 1
0.001426274276058992 4 3 4 2
0.053938589532778226 4 3 4 3
0.1804505229824938 4 4 1 1
-0.0001666667740323772 4 4 2 1
0.18735480617357583 4 4 2 2
-0.0005746124850848622 4 4 3 1
0.000693974397646002 4 4 3 2
0.1872112582760287 4 4 3 3
-0.0015032637592276295 4 4 4 1
0.0036010676042015997 4 4 4 2
0.003563882282002804 4 4 4 3
0.19461704901266108 4 4 4 4
-0.006459495770753993 5 1 1 1
-0.0023601014637195284 5 1 2 1
-0.0018523396716436512 5 1 2 2
0.00040698734029438467 5 1 3 1
0.0010972648920579585 5 1 3 2
0.0007637211069004277 5 1 3 3
-0.0013955439248655055 5 1 4 1
-0.0030395968141669247 5 1 4 2
0.00012416581101802615 5 1 4 3
-0.000143631660454226 5 1 4 4
0.005539258418597773 5 1 5 1
-0.04300971668944865 5 2 1 1
0.003455559879012525 5 2 2 1
-0.020570269742649746 5 2 2 2
0.001373794567672201 5 2 3 1
0.0017728245387536338 5 2 3 2
0.00697612054574016 5 2 3 3
-0.008588765293337254 5 2 4 1
-0.0003802037919370845 5 2 4 2
-0.000509384835935184 5 2 4 3
0.0028980735622152315 5 2 4 4
0.00260697716781314 5 2 5 1
0.02310928118994095 5 2 5 2
0.0020964237729103365 5 3 1 1
0.000882987298897114 5 3 2 1
0.003551447172950457 5 3 2 2
0.004831223477012108 5 3 3 1
0.039652214830778854 5 3 3 2
-0.0024333815474273145 5 3 3 3
0.0004315441061194187 5 3 4 1
0.0004416339096323733 5 3 4 2
0.0006183125568738465 5 3 4 3
0.0002310237672437165 5 3 4 4
0.0009612816437796861 5 3 5 1
5.626801155842376e-05 5 3 5 2
0.03900385823557943 5 3 5 3
-0.0013257331985978324 5 4 1 1
-0.004852554799981834 5 4 2 1
-0.0014162263166125856 5 4 2 2
8.448248124589536e-05 5 4 3 1
-0.0009114756844972169 5 4 3 2
-0.000707815158275645 5 4 3 3
0.0020956733139524605 5 4 4 1
0.021188395111502258 5 4 4 2
-0.00087622476240861 5 4 4 3
0.0033533640331041593 5 4 4 4
-0.002123942625655286 5 4 5 1
-0.0015386406438854903 5 4 5 2
-0.002639446862155938 5 4 5 3
0.02541913776008239 5 4 5 4
0.21707362118802068 5 5 1 1
-0.002038244751465535 5 5 2 1
0.19918333605004584 5 5 2 2
-0.0005326031034377841 5 5 3 1
-0.0009343478727896429 5 5 3 2
0.1752919829194452 5 5 3 3
0.0066994977040477815 5 5 4 1
-0.0025740285462952425 5 5 4 2
-0.003103571902263262 5 5 4 3
0.18117676417086986 5 5 4 4
-0.0023759134942026874 5 5 5 1
-0.01871801807767624 5 5 5 2
0.0008719207459926669 5 5 5 3
-0.002166972574702547 5 5 5 4
0.19711128973673267 5 5 5 5
-0.0004296810257771281 6 1 1 1
-0.0004508630351360949 6 1 2 1
-0.0006831274432593276 6 1 2 2
-0.0017639592943075575 6 1 3 1
-0.009518482518346373 6 1 3 2
0.0004669953986080082 6 1 3 3
-5.620618399235063e-05 6 1 4 1
-0.0001473112587539896 6 1 4 2
0.003105811402293358 6 1 4 3
0.00031079897867787674 6 1 4 4
-2.2010769479739537e-05 6 1 5 1
-7.857986617146346e-05 6 1 5 2
-0.008008159064609787 6 1 5 3
0.0004909469645496912 6 1 5 4
-0.00019759941406225943 6 1 5 5
0.0046661054219881105 6 1 6 1
-0.003166907225314466 6 2 1 1
-0.00022441142410800874 6 2 2 1
-0.0014512923764864408 6 2 2 2
-0.005545861010409993 6 2 3 1
-0.00162192405976143 6 2 3 2
-0.0016962262261306718 6 2 3 3
-7.77550805340728e-05 6 2 4 1
0.002028001915591207 6 2 4 2
0.035651998402857404 6 2 4 3
0.0030693318205540017 6 2 4 4
0.00011917753512169395 6 2 5 1
0.0006802333629316779 6 2 5 2
-0.0014328101952574242 6 2 5 3
0.000450860807649545 6 2 5 4
-0.002045135823498933 6 2 5 5
0.0030161005916177043 6 2 6 1
0.033896891015465926 6 2 6 2
-0.002032240625443751 6 3 1 1
-0.006365215383200266 6 3 2 1
-0.0014910140974281417 6 3 2 2
0.00040912908528117486 6 3 3 1
-0.00017965082639534864 6 3 3 2
-0.0003285887517512554 6 3 3 3
0.0025824301371541237 6 3 4 1
0.02856226462359164 6 3 4 2
-0.0022133785746237308 6 3 4 3
0.0050466390073224815 6 3 4 4
-0.0034740365049486643 6 3 5 1
-0.001463977396989135 6 3 5 2
-0.0023955311052025487 6 3 5 3
0.031085264636893116 6 3 5 4
-0.0025758787807117368 6 3 5 5
0.00029100833779738565 6 3 6 1
-0.00033810128382163416 6 3 6 2
0.040868106614389985 6 3 6 3
0.00010440270876915995 6 4 1 1
0.00018217224522945434 6 4 2 1
0.003066952903566181 6 4 2 2
0.00473235736805852 6 4 3 1
0.048063219927815884 6 4 3 2
-0.0033083616675774197 6 4 3 3
0.0006081851864825152 6 4 4 1
0.004887494290532437 6 4 4 2
0.00704164816947486 6 4 4 3
0.0013546244607041773 6 4 4 4
0.0008321010808831691 6 4 5 1
0.0007028658706669363 6 4 5 2
0.04479670223843015 6 4 5 3
0.0014446885185237766 6 4 5 4
-0.0007399998687274263 6 4 5 5
-0.009011430239565691 6 4 6 1
0.0022208827573545085 6 4 6 2
0.0027950063915848527 6 4 6 3
0.05480840775618019 6 4 6 4
0.0016853429453875875 6 5 1 1
-0.00012043872543057449 6 5 2 1
0.0015187924964208737 6 5 2 2
-0.007022235809954311 6 5 3 1
-0.0017137414012653339 6 5 3 2
-0.002029165400370848 6 5 3 3
0.0005578283045003627 6 5 4 1
0.00043406289924086426 6 5 4 2
0.03251829257706901 6 5 4 3
0.002301814651234194 6 5 4 4
-0.00022395633655723866 6 5 5 1
-0.0011027073731316801 6 5 5 2
-0.002733317372148083 6 5 5 3
-0.0005481383334351986 6 5 5 4
-0.0020721400343698274 6 5 5 5
0.001726583040171462 6 5 6 1
0.01100363935820188 6 5 6 2
-0.0011396385931823037 6 5 6 3
0.001355120087772512 6 5 6 4
0.03378603476595286 6 5 6 5
0.18164234964198264 6 6 1 1
-0.0006861817882762967 6 6 2 1
0.1804700100007915 6 6 2 2
-0.000736255949859996 6 6 3 1
-0.001040258662252872 6 6 3 2
0.1740754682520247 6 6 3 3
0.0013973032340865174 6 6 4 1
0.001295292798993996 6 6 4 2
0.001941096073429557 6 6 4 3
0.1768697442309916 6 6 4 4
-0.0006468072385096345 6 6 5 1
-0.003908423525040704 6 6 5 2
-0.00079034164947423 6 6 5 3
0.0014684191758715698 6 6 5 4
0.1773349521255841 6 6 5 5
0.00028926836332233345 6 6 6 1
0.00071313540420107 6 6 6 2
0.00207426030804503 6 6 6 3
-0.0006146277029869026 6 6 6 4
0.0019322769460404815 6 6 6 5
0.17503728103169275 6 6 6 6
0.00010154798918313388 7 1 1 1
-9.45700096760939e-05 7 1 2 1
0.0002552379750261508 7 1 2 2
-0.00012011723241632668 7 1 3 1
0.0019660720664858677 7 1 3 2
-0.00038029617869446956 7 1 3 3
8.859584599598692e-05 7 1 4 1
0.00022128677705549423 7 1 4 2
0.002726973925217095 7 1 4 3
0.00011309740555374576 7 1 4 4
7.81871839040323e-05 7 1 5 1
-2.2400665335274456e-05 7 1 5 2
0.0012225298979702582 7 1 5 3
6.386976897019177e-05 7 1 5 4
-0.0003572878892584085 7 1 5 5
-0.00046647246971538177 7 1 6 1
-0.0001228370750809461 7 1 6 2
6.881579251130852e-05 7 1 6 3
0.001987089706528475 7 1 6 4
0.0032514067968912193 7 1 6 5
0.00018896272006002008 7 1 6 6
0.001257477322833689 7 1 7 1
-0.0007285426323435868 7 2 1 1
0.0004546936457427577 7 2 2 1
0.0012747608221187752 7 2 2 2
0.0024015466955479344 7 2 3 1
0.01934490799717345 7 2 3 2
-0.0008268226264940102 7 2 3 3
-7.135222013478809e-05 7 2 4 1
0.0007167472419458603 7 2 4 2
1.0498801197654154e-05 7 2 4 3
0.0002895783735827221 7 2 4 4
0.00036919905461429384 7 2 5 1
0.0007860172311759275 7 2 5 2
0.013336809937342509 7 2 5 3
-0.0008175049938631058 7 2 5 4
-0.00032485159920974397 7 2 5 5
-0.004182065489171957 7 2 6 1
-0.0010356306730304819 7 2 6 2
-0.0006784240284057055 7 2 6 3
0.017099016094959448 7 2 6 4
-0.0007306873778194253 7 2 6 5
-0.0003093567087630952 7 2 6 6
0.0012115815883605456 7 2 7 1
0.012618839855734209 7 2 7 2
0.00825115925247515 7 3 1 1
0.0001344302878421896 7 3 2 1
0.00820773552542808 7 3 2 2
-0.0003440849981880785 7 3 3 1
-0.001133843214633996 7 3 3 2
0.0017325187622299041 7 3 3 3
0.001246985075424161 7 3 4 1
-0.0011067338377791281 7 3 4 2
0.00011891250230590819 7 3 4 3
0.0019293012748242543 7 3 4 4
-0.0003310604283166388 7 3 5 1
-0.002816299154728146 7 3 5 2
-0.0006312157402268242 7 3 5 3
-0.0010713402359208448 7 3 5 4
0.0042125370588781495 7 3 5 5
0.0001833259416989428 7 3 6 1
-0.00018380801779511072 7 3 6 2
-0.001402513573133626 7 3 6 3
-0.00109897536547741 7 3 6 4
3.011257487916571e-05 7 3 6 5
0.0035679062992018 7 3 6 6
9.716063023786992e-05 7 3 7 1
-2.1668697510603417e-05 7 3 7 2
0.006311747198624174 7 3 7 3
0.0004553086269116282 7 4 1 1
8.686365732457206e-05 7 4 2 1
0.0002881877458695175 7 4 2 2
0.001163836868440431 7 4 3 1
-0.00015196397006613747 7 4 3 2
0.0005097314515230174 7 4 3 3
-5.101835779838969e-05 7 4 4 1
-0.0006368791796783792 7 4 4 2
-0.006035218892963616 7 4 4 3
-0.00038062285354776724 7 4 4 4
6.722069631558342e-05 7 4 5 1
-0.00010695509173977201 7 4 5 2
-0.00025958649202824965 7 4 5 3
-0.0005212068203122529 7 4 5 4
0.0006160149978121557 7 4 5 5
-0.00022057730317657427 7 4 6 1
-0.002305131769222947 7 4 6 2
-0.0005047981703237193 7 4 6 3
-0.0008433482294449273 7 4 6 4
-0.0032987304243033834 7 4 6 5
-0.00023670195927316779 7 4 6 6
-0.0009915695425083667 7 4 7 1
0.00037828849091900104 7 4 7 2
-2.604994203621805e-06 7 4 7 3
0.004816236818580909 7 4 7 4
0.0012995576233901637 7 5 1 1
-0.0002017759381632325 7 5 2 1
0.0002198770160420512 7 5 2 2
-0.000849803763951335 7 5 3 1
-0.00806327497621985 7 5 3 2
0.0004371677108414297 7 5 3 3
0.00018776717682250768 7 5 4 1
-0.0005063953867409193 7 5 4 2
-0.00098955312915377 7 5 4 3
-0.00017445980657414983 7 5 4 4
-0.00032990245062996973 7 5 5 1
-0.0008119004428492051 7 5 5 2
-0.008522352492482878 7 5 5 3
0.0002687252581345485 7 5 5 4
0.0007666164932719504 7 5 5 5
0.0021080042665032137 7 5 6 1
0.0001513294119828799 7 5 6 2
-8.041289689754256e-05 7 5 6 3
-0.009350857547227772 7 5 6 4
-0.0005679194942580767 7 5 6 5
0.00034993259963398885 7 5 6 6
-0.0002490780849652673 7 5 7 1
-0.001673185624384854 7 5 7 2
0.0006215276778313786 7 5 7 3
0.00021109735657277772 7 5 7 4
0.0050588443530114845 7 5 7 5
-0.0011166215272999161 7 6 1 1
-0.0018161011133464107 7 6 2 1
-0.0005589420270326392 7 6 2 2
-0.0001990131002679387 7 6 3 1
-0.0018160985711429484 7 6 3 2
2.0910463101514908e-05 7 6 3 3
0.0003971718313835489 7 6 4 1
0.00592303000216564 7 6 4 2
-8.768173928473897e-05 7 6 4 3
0.0010951873166176684 7 6 4 4
0.00013283287847640205 7 6 5 1
-8.514430777747246e-05 7 6 5 2
-0.002110801578546394 7 6 5 3
0.005265189228577338 7 6 5 4
-0.0007656440450498265 7 6 5 5
0.0005190972113021229 7 6 6 1
0.0002622805599803564 7 6 6 2
0.008712242285379666 7 6 6 3
-0.0013936885641606478 7 6 6 4
0.0003228139042288512 7 6 6 5
0.0005184464472678868 7 6 6 6
-5.58266177849739e-05 7 6 7 1
-0.0008492194138776817 7 6 7 2
-0.00023944352874491988 7 6 7 3
0.00021603881742537237 7 6 7 4
0.0003133744124940114 7 6 7 5
0.005864947334716568 7 6 7 6
0.17100722442096133 7 7 1 1
0.0006221507072288065 7 7 2 1
0.1787797121318566 7 7 2 2
0.0009713551107646098 7 7 3 1
0.006144372628562775 7 7 3 2
0.17749346230363436 7 7 3 3
-0.001863708374660843 7 7 4 1
0.0011453959326080323 7 7 4 2
-0.001136554739270907 7 7 4 3
0.18170379627785369 7 7 4 4
0.0001891465243543399 7 7 5 1
0.0022293724624735597 7 7 5 2
0.005571728725228414 7 7 5 3
0.0003610046666759234 7 7 5 4
0.1724651868564444 7 7 5 5
-0.0012139431445614963 7 7 6 1
-0.0007529157463753912 7 7 6 2
0.0011968912519004049 7 7 6 3
0.006490815666692415 7 7 6 4
-0.0009457363487204958 7 7 6 5
0.16915324445258031 7 7 6 6
8.444348450921707e-05 7 7 7 1
0.0029325613446479024 7 7 7 2
0.0009597556096590616 7 7 7 3
0.00017399576622762684 7 7 7 4
-0.0016449413081222478 7 7 7 5
0.0003928956821321283 7 7 7 6
0.18895223626004967 7 7 7 7
0.001733832229793818 8 1 1 1
0.001956906081856165 8 1 2 1
4.463791896419935e-05 8 1 2 2
-0.0001224196204252404 8 1 3 1
0.0002812692303348455 8 1 3 2
-0.00042069998494411386 8 1 3 3
0.00011999441995402448 8 1 4 1
-0.001939135050178128 8 1 4 2
0.0002532024485496093 8 1 4 3
-0.0007574198727994291 8 1 4 4
-0.0009449482413501919 8 1 5 1
-0.00045735249786408466 8 1 5 2
0.0005538938335440129 8 1 5 3
-0.0030465171370993097 8 1 5 4
0.0006770262707723855 8 1 5 5
-0.00023336089961635843 8 1 6 1
-0.00018083671144252368 8 1 6 2
-0.0032833869085657696 8 1 6 3
8.887204624572171e-05 8 1 6 4
0.0004088282761521926 8 1 6 5
-0.00019734084912499547 8 1 6 6
-5.112659616576931e-06 8 1 7 1
0.00014319710943269367 8 1 7 2
-0.00012480403540358944 8 1 7 3
-6.894888887502773e-06 8 1 7 4
-0.00016043115101092026 8 1 7 5
-0.00047774428314705913 8 1 7 6
-0.0007095641339443876 8 1 7 7
0.0019298644436207015 8 1 8 1
0.013535891753247434 8 2 1 1
-0.0013402744776460397 8 2 2 1
0.00330531325170819 8 2 2 2
-0.00023211384651579943 8 2 3 1
0.0010007967401845562 8 2 3 2
-0.0037684108476293515 8 2 3 3
0.002789827613766245 8 2 4 1
-0.00030477955802515606 8 2 4 2
-0.00022683023746480405 8 2 4 3
-0.0029063239669818107 8 2 4 4
-0.0007563290118662811 8 2 5 1
-0.007272859338439069 8 2 5 2
0.0011983649999931722 8 2 5 3
8.35443749961265e-05 8 2 5 4
0.005164955720493707 8 2 5 5
-0.00036369555060869366 8 2 6 1
-0.0010255733881515787 8 2 6 2
-0.00015242429112019942 8 2 6 3
0.0011888194180853574 8 2 6 4
0.0006323078470321165 8 2 6 5
-0.00010282616423823653 8 2 6 6
0.00010718877905322368 8 2 7 1
0.00020697442526598526 8 2 7 2
-0.002579531517161714 8 2 7 3
-0.0001189456876176939 8 2 7 4
-7.657776997265647e-05 8 2 7 5
-0.00036839903741479185 8 2 7 6
-0.005234175126507753 8 2 7 7
0.00046269090329828624 8 2 8 1
0.006177072264995383 8 2 8 2
-6.128755720254543e-05 8 3 1 1
0.0002444804831817402 8 3 2 1
0.0005903001845065593 8 3 2 2
0.00029449337604406356 8 3 3 1
0.003563324278693537 8 3 3 2
1.9861329771951098e-05 8 3 3 3
-8.59899094807756e-05 8 3 4 1
-0.0005638732926925888 8 3 4 2
0.00100245696194611 8 3 4 3
0.00027249532561673815 8 3 4 4
0.00029453679192097354 8 3 5 1
0.0003088219693084939 8 3 5 2
0.0053000924899265 8 3 5 3
-0.0010477429632344542 8 3 5 4
3.8263270979389314e-05 8 3 5 5
-0.0009560622243867641 8 3 6 1
0.0003161569023367316 8 3 6 2
-0.0010713517759453819 8 3 6 3
0.005071419260028246 8 3 6 4
0.00016254439608275056 8 3 6 5
0.00012002797832743288 8 3 6 6
-0.00012056927588501284 8 3 7 1
-0.001751244081483312 8 3 7 2
0.0002325642318768062 8 3 7 3
-0.0005814687831144446 8 3 7 4
-0.004359374557830798 8 3 7 5
-0.00044567032978972223 8 3 7 6
0.001077660533464759 8 3 7 7
0.00016184310973114645 8 3 8 1
-0.0003418032682990707 8 3 8 2
0.005424167131427476 8 3 8 3
-0.00023693748705751219 8 4 1 1
-0.000735053552970546 8 4 2 1
-0.0005019948664589346 8 4 2 2
-3.4915602318023284e-05 8 4 3 1
-0.0008767724421773638 8 4 3 2
-3.3736342449140134e-05 8 4 3 3
0.00035131396167993465 8 4 4 1
0.003859620768324649 8 4 4 2
-0.00028844955778479554 8 4 4 3
0.0006508042819479564 8 4 4 4
-0.0011938301874980964 8 4 5 1
-0.00022990745654585085 8 4 5 2
-0.0012209097103598387 8 4 5 3
0.0052198422954837405 8 4 5 4
-0.00047351727009207806 8 4 5 5
0.00016917073137303105 8 4 6 1
0.00016911010132700534 8 4 6 2
0.005281789082957795 8 4 6 3
-0.0005063926336189215 8 4 6 4
-0.00017104716523881367 8 4 6 5
-8.125066443112204e-05 8 4 6 6
-6.0866088048621294e-05 8 4 7 1
-0.0005130627502253555 8 4 7 2
-0.0006494916118417584 8 4 7 3
-0.00012216507223786666 8 4 7 4
0.000259948285810688 8 4 7 5
-0.0018118621692627802 8 4 7 6
0.00014935546956745623 8 4 7 7
-0.0008940008703443098 8 4 8 1
0.00023261801012997474 8 4 8 2
-0.00032254191761032683 8 4 8 3
0.004740031705999118 8 4 8 4
-0.019791297419742684 8 5 1 1
0.0010621263540198415 8 5 2 1
-0.012005221075537316 8 5 2 2
0.0006384659057414698 8 5 3 1
8.468707759425119e-05 8 5 3 2
0.0004258069774067219 8 5 3 3
-0.0035117415959760177 8 5 4 1
0.00015796128989108615 8 5 4 2
-0.0008536675217629153 8 5 4 3
-0.0012122698653215377 8 5 4 4
0.0011807664193287668 8 5 5 1
0.008854259496513868 8 5 5 2
-0.0006841649074923225 8 5 5 3
-0.00013737181577434462 8 5 5 4
-0.009685278049042213 8 5 5 5
0.0001293210264838073 8 5 6 1
0.00026381680714644023 8 5 6 2
-6.97371640031229e-05 8 5 6 3
-0.000460603219046392 8 5 6 4
-0.0010247471972930219 8 5 6 5
-0.004164888035282141 8 5 6 6
-0.00018313986297546748 8 5 7 1
2.8360626219534614e-06 8 5 7 2
-0.004919625944714717 8 5 7 3
9.995856299297297e-05 8 5 7 4
-0.00014731125147648039 8 5 7 5
0.00013460667727904833 8 5 7 6
0.0012198736129040504 8 5 7 7
-0.00014851099184468182 8 5 8 1
-0.001558205191201256 8 5 8 2
-0.0004984106917766742 8 5 8 3
0.0002384807330677178 8 5 8 4
0.007241676769242584 8 5 8 5
-0.0014504728260956747 8 6 1 1
-4.1785365500366254e-05 8 6 2 1
-0.0010481967957465125 8 6 2 2
0.0014393263881421813 8 6 3 1
-0.0017426437574050023 8 6 3 2
0.0006051540992463696 8 6 3 3
-0.00032057274544564595 8 6 4 1
0.00015045205828148554 8 6 4 2
-0.007351868016794413 8 6 4 3
-0.0004501117819607817 8 6 4 4
9.465742807431498e-05 8 6 5 1
0.0007273810521289057 8 6 5 2
-0.0013900142989495972 8 6 5 3
0.00045764851306309386 8 6 5 4
-3.261363486707327e-05 8 6 5 5
-8.405617896054035e-05 8 6 6 1
-0.0036646513027782305 8 6 6 2
0.0008056219456068209 8 6 6 3
-0.0028570528995042416 8 6 6 4
-0.00843818887034236 8 6 6 5
-0.0005388584844784334 8 6 6 6
-0.0004815734795266316 8 6 7 1
-0.0007952852728635422 8 6 7 2
-9.873160092150903e-05 8 6 7 3
-0.0021691518662857096 8 6 7 4
0.0005957232415610055 8 6 7 5
0.0001706254398568184 8 6 7 6
0.0005040254598204265 8 6 7 7
-0.00014548491007435093 8 6 8 1
-0.00041186680273034475 8 6 8 2
-9.22544460232636e-05 8 6 8 3
-0.00018366720544277443 8 6 8 4
0.0005362352702300766 8 6 8 5
0.00662301587500766 8 6 8 6
-0.00039523773279826824 8 7 1 1
-0.0006495837574802115 8 7 2 1
-0.003286544844371138 8 7 2 2
-0.005250626349614608 8 7 3 1
-0.051037462278041776 8 7 3 2
0.0036147250912966456 8 7 3 3
-0.0004768148140573606 8 7 4 1
-0.0028479874181107485 8 7 4 2
-0.0063793941283691825 8 7 4 3
-0.0007045955810319015 8 7 4 4
-0.0011571692473059396 8 7 5 1
-0.0007479238009183804 8 7 5 2
-0.04684120275134914 8 7 5 3
0.0011896846420352703 8 7 5 4
0.0004863647645951851 8 7 5 5
0.009991587933842343 8 7 6 1
-0.0017631387281705354 8 7 6 2
0.00034086890445618944 8 7 6 3
-0.05571547287650194 8 7 6 4
-0.0004471021051183669 8 7 6 5
0.0009589219376761109 8 7 6 6
-0.0024395719617640753 8 7 7 1
-0.021557340715005174 8 7 7 2
0.0012769769025726078 8 7 7 3
0.0009173347301788422 8 7 7 4
0.012772534441213321 8 7 7 5
0.002531227937342839 8 7 7 6
-0.008267511740338402 8 7 7 7
-0.0004853598301406904 8 7 8 1
-0.0016228571676542205 8 7 8 2
-0.007182704120713063 8 7 8 3
0.0011094086982720356 8 7 8 4
0.0006964031011077985 8 7 8 5
0.0033208004704478834 8 7 8 6
0.07350568787028691 8 7 8 7
0.17622568014390028 8 8 1 1
-0.0006490383431240929 8 8 2 1
0.1766178785555584 8 8 2 2
-0.0008028969151717762 8 8 3 1
-0.006246303801595971 8 8 3 2
0.17313379619989522 8 8 3 3
-1.4332444675807065e-05 8 8 4 1
0.0017355857221399867 8 8 4 2
-0.0010539430231253466 8 8 4 3
0.1764014559789408 8 8 4 4
-0.0007002924796033997 8 8 5 1
-0.002152864714254899 8 8 5 2
-0.00568383479917681 8 8 5 3
0.0022589298438678513 8 8 5 4
0.17281069501196608 8 8 5 5
0.0012510466031460023 8 8 6 1
-0.00042400811293804674 8 8 6 2
0.003155861426789737 8 8 6 3
-0.006517815043193561 8 8 6 4
0.00033730968881748877 8 8 6 5
0.1685538426756968 8 8 6 6
-0.00035467781384553965 8 8 7 1
-0.00251421720499238 8 8 7 2
0.0005941609231008677 8 8 7 3
0.0002742919269259742 8 8 7 4
0.001522173507557447 8 8 7 5
0.0015518094237272338 8 8 7 6
0.1809628944109666 8 8 7 7
-0.0006860012450205176 8 8 8 1
-0.0022059705334653706 8 8 8 2
-0.0008648798461623959 8 8 8 3
0.0007106169693531394 8 8 8 4
-0.00042073693510547467 8 8 8 5
0.0004948107897748338 8 8 8 6
0.009034259549048507 8 8 8 7
0.18034927433927767 8 8 8 8
0.0010792254950840118 9 1 1 1
0.00028897418413450094 9 1 2 1
0.004928440112080502 9 1 2 2
-6.0664989179343956e-06 9 1 3 1
-0.00017361474550783425 9 1 3 2
0.0057776078550422355 9 1 3 3
-0.0011713320899509143 9 1 4 1
0.0009003617408466788 9 1 4 2
0.00016809156232649964 9 1 4 3
0.00736811104118435 9 1 4 4
-6.1245752572525676e-06 9 1 5 1
0.0011742149056300434 9 1 5 2
-0.00024872776041626047 9 1 5 3
0.0006280626950605845 9 1 5 4
0.003965264015635229 9 1 5 5
8.695065359034505e-05 9 1 6 1
0.0003886980183244444 9 1 6 2
0.0012274227122470163 9 1 6 3
-0.00014796808224052966 9 1 6 4
0.00017992878755802557 9 1 6 5
0.0018045159263575072 9 1 6 6
-6.67860700916127e-05 9 1 7 1
-4.5589046339730684e-05 9 1 7 2
-5.606249792258269e-05 9 1 7 3
6.298275431526307e-05 9 1 7 4
-8.258234408148616e-06 9 1 7 5
0.0007501291669153939 9 1 7 6
0.006673468353273742 9 1 7 7
-0.00016825125611786722 9 1 8 1
-0.0011845053821782168 9 1 8 2
2.716140298822604e-06 9 1 8 3
-8.814135373968908e-05 9 1 8 4
0.00011395769907479162 9 1 8 5
7.918421695110485e-05 9 1 8 6
0.0003306100415207713 9 1 8 7
0.005203952353282618 9 1 8 8
0.0035157021233151735 9 1 9 1
0.0007053172155878236 9 2 1 1
-0.002661822338994754 9 2 2 1
-0.0005894044338291441 9 2 2 2
-0.00016322589895440226 9 2 3 1
-0.0005868775205184726 9 2 3 2
-0.001231346617280603 9 2 3 3
0.0013565221435918394 9 2 4 1
0.009774623849815119 9 2 4 2
0.00030556335054471626 9 2 4 3
0.0007426425952219473 9 2 4 4
-0.0004943068280089107 9 2 5 1
-0.0016071269825185179 9 2 5 2
-0.001234606325546788 9 2 5 3
0.009839437349868576 9 2 5 4
-0.0005948847017969238 9 2 5 5
0.00032908486501793727 9 2 6 1
0.0006280715903111053 9 2 6 2
0.014167294752763255 9 2 6 3
0.0005075820930548528 9 2 6 4
0.0004110175153773319 9 2 6 5
0.0007441629400503582 9 2 6 6
3.3653199895828654e-05 9 2 7 1
-0.0004802893880744375 9 2 7 2
-0.0007422454600699435 9 2 7 3
2.2340311358738183e-05 9 2 7 4
5.250403762107894e-05 9 2 7 5
0.0061704987720028375 9 2 7 6
-0.0008530022796286302 9 2 7 7
-0.0010678516684331702 9 2 8 1
0.0006160361850111642 9 2 8 2
-0.0005114206467730762 9 2 8 3
-0.00026615060654077143 9 2 8 4
-0.00018255813141279892 9 2 8 5
8.687710899141481e-05 9 2 8 6
0.0006790965293196648 9 2 8 7
0.000736542942642461 9 2 8 8
0.0003045444397898618 9 2 9 1
0.008172974779880087 9 2 9 2
0.00010381522537518974 9 3 1 1
3.709385970619233e-06 9 3 2 1
3.7791078324800826e-06 9 3 2 2
-0.0009164409279804977 9 3 3 1
-0.0004743160854505263 9 3 3 2
-0.00042675726681326744 9 3 3 3
8.211558163901666e-05 9 3 4 1
-6.906719785171271e-05 9 3 4 2
0.006275688367889497 9 3 4 3
0.00035325667788614184 9 3 4 4
-1.0252420816184893e-05 9 3 5 1
-0.0002607343482862158 9 3 5 2
-0.00024395279866811555 9 3 5 3
-0.0003751732548395821 9 3 5 4
-0.0001901311286027783 9 3 5 5
0.0006816936827501689 9 3 6 1
0.006604112459372359 9 3 6 2
-0.0006725095781540942 9 3 6 3
0.0005203496952386388 9 3 6 4
0.0038424819194032823 9 3 6 5
3.644819619386957e-05 9 3 6 6
-0.0004211678728672439 9 3 7 1
-0.0004707686986575167 9 3 7 2
-0.0002026890473171326 9 3 7 3
0.003408487197560355 9 3 7 4
-0.0003083206284654754 9 3 7 5
8.317392553179721e-05 9 3 7 6
-0.00022668214644283659 9 3 7 7
2.0034138320937174e-05 9 3 8 1
-9.68472533592724e-05 9 3 8 2
0.00016459942964782868 9 3 8 3
0.00016129237413149136 9 3 8 4
3.63666458771702e-05 9 3 8 5
-0.004445672411482986 9 3 8 6
-7.696852670477123e-05 9 3 8 7
0.00012237077124045 9 3 8 8
8.992152506291396e-05 9 3 9 1
7.415006997812258e-05 9 3 9 2
0.005814501560557558 9 3 9 3
-0.004421077713601644 9 4 1 1
0.00025542881559190465 9 4 2 1
-0.0008876475039637408 9 4 2 2
9.329990976490125e-05 9 4 3 1
1.0259127546684184e-05 9 4 3 2
-7.081569347761353e-05 9 4 3 3
-8.662981841540512e-05 9 4 4 1
0.0008671202374631384 9 4 4 2
5.8245815409417487e-05 9 4 4 3
-0.001345702852963357 9 4 4 4
9.808822214943863e-05 9 4 5 1
0.0019029534774634579 9 4 5 2
-0.0002473797604476825 9 4 5 3
0.0008836628050416528 9 4 5 4
-0.0030219625668357736 9 4 5 5
8.842232065252192e-06 9 4 6 1
0.00018631196688011865 9 4 6 2
0.0011766771478517813 9 4 6 3
1.688166283076766e-05 9 4 6 4
-0.0001842922725909721 9 4 6 5
0.001416286112336968 9 4 6 6
7.438435792944385e-05 9 4 7 1
0.0002979136209926586 9 4 7 2
0.003706149344541641 9 4 7 3
0.00028087396880557115 9 4 7 4
0.00016265084151510632 9 4 7 5
0.0003796111633276221 9 4 7 6
-0.002038130779522139 9 4 7 7
-0.00031831143432065875 9 4 8 1
-0.0024807473927324986 9 4 8 2
0.00018544920889582432 9 4 8 3
-0.00020597411963683987 9 4 8 4
-0.0020017016463684235 9 4 8 5
-0.00029156381284047695 9 4 8 6
0.0001653970389838681 9 4 8 7
-0.0021472687517820463 9 4 8 8
-0.0010992437771374796 9 4 9 1
0.00027991090252489935 9 4 9 2
0.00017624585680790133 9 4 9 3
0.004725948351313031 9 4 9 4
-0.001546578100582664 9 5 1 1
0.0006932048358159032 9 5 2 1
-0.0009390682068638747 9 5 2 2
2.3959432963443993e-05 9 5 3 1
-0.00046886483191008107 9 5 3 2
0.0003018189021396732 9 5 3 3
-0.0004781247136442253 9 5 4 1
-0.0010887547532156892 9 5 4 2
-0.00023691743786342733 9 5 4 3
-8.396366707482705e-05 9 5 4 4
0.0003256658455437728 9 5 5 1
0.00093673102561228 9 5 5 2
-0.0002439798891063761 9 5 5 3
-0.002532998349114957 9 5 5 4
-0.00040472265848077353 9 5 5 5
0.00010606270878343948 9 5 6 1
1.2334600739669518e-05 9 5 6 2
-0.0015882842907825722 9 5 6 3
-0.0007694843914235386 9 5 6 4
-0.0002789884904591543 9 5 6 5
-0.0002722614786348291 9 5 6 6
-9.69570944812244e-05 9 5 7 1
-0.0001470995390623484 9 5 7 2
-0.0003283664212486844 9 5 7 3
0.00025865588232186986 9 5 7 4
-0.00014706768339659015 9 5 7 5
0.0015997728991481307 9 5 7 6
9.81397312633801e-05 9 5 7 7
0.0006649605547012034 9 5 8 1
-0.00019431917400044565 9 5 8 2
0.0001732043163477238 9 5 8 3
-0.0031291307533277087 9 5 8 4
0.0006399528370826044 9 5 8 5
0.00025248171181494784 9 5 8 6
0.0004661655763963438 9 5 8 7
-0.00012442151274834876 9 5 8 8
0.00025076745646970437 9 5 9 1
0.0005623035576571001 9 5 9 2
3.880154513518366e-05 9 5 9 3
-0.00029166520261817385 9 5 9 4
0.003293437851677124 9 5 9 5
-0.000292813524908098 9 6 1 1
0.0004633343416030818 9 6 2 1
0.001149758652852868 9 6 2 2
0.0019202814694371522 9 6 3 1
0.018829665400341183 9 6 3 2
-0.0010965508418759248 9 6 3 3
-2.0080746637684077e-05 9 6 4 1
0.0005768680450176065 9 6 4 2
0.0025598467827901996 9 6 4 3
0.00042347884419426427 9 6 4 4
0.0005101115205897391 9 6 5 1
0.0005784972545975502 9 6 5 2
0.01629062297679517 9 6 5 3
-0.0009338153108185972 9 6 5 4
-0.0002755795744930268 9 6 5 5
-0.0038148472826249774 9 6 6 1
0.0012179497218881713 9 6 6 2
-0.0008259251921670931 9 6 6 3
0.020737762566112837 9 6 6 4
-4.015815013407258e-05 9 6 6 5
-0.00039310297286568877 9 6 6 6
0.0010474956565803648 9 6 7 1
0.00943787482801883 9 6 7 2
-0.00020610742701187952 9 6 7 3
-0.0001568327665040808 9 6 7 4
-0.001600981238266033 9 6 7 5
-0.0008534803650470329 9 6 7 6
0.00293492238417331 9 6 7 7
0.00020052289119664726 9 6 8 1
0.00034897748776660227 9 6 8 2
-0.0013841839398581425 9 6 8 3
-0.0007818943747090297 9 6 8 4
7.397910621194167e-05 9 6 8 5
-0.0012284999513196373 9 6 8 6
-0.02405908598773409 9 6 8 7
-0.0029077208786905525 9 6 8 8
-2.801849405077127e-05 9 6 9 1
-0.00034349561739258766 9 6 9 2
-0.00017291229549214993 9 6 9 3
2.503741923213998e-05 9 6 9 4
-6.825781448383466e-05 9 6 9 5
0.012938480584643905 9 6 9 6
-0.00031829865496005685 9 7 1 1
-0.0006841389921216238 9 7 2 1
0.0001054842680668732 9 7 2 2
-0.008503154785216528 9 7 3 1
-0.00315747069475772 9 7 3 2
-0.0028295134709438287 9 7 3 3
0.0006781659960913371 9 7 4 1
0.0031772080644031867 9 7 4 2
0.045965682487375405 9 7 4 3
0.0036135737483398707 9 7 4 4
-0.00031759385405348393 9 7 5 1
-0.0009027909100505915 9 7 5 2
-0.003388317902780507 9 7 5 3
0.001774859804121718 9 7 5 4
-0.0025312227330028187 9 7 5 5
0.003755740105224443 9 7 6 1
0.03217723500659033 9 7 6 2
0.0012566436067507477 9 7 6 3
0.001903916113374095 9 7 6 4
0.02810942088065193 9 7 6 5
0.001769414537952096 9 7 6 6
0.003075925167695776 9 7 7 1
-0.0020200748727029288 9 7 7 2
9.405990119302705e-05 9 7 7 3
-0.005881866312111969 9 7 7 4
2.905924580247288e-05 9 7 7 5
0.0012463991860828714 9 7 7 6
-0.0018096202915796012 9 7 7 7
-2.6039390826132443e-05 9 7 8 1
-7.959151029500324e-05 9 7 8 2
0.0005532562804929494 9 7 8 3
0.0003612785064354137 9 7 8 4
-0.0007596775618415626 9 7 8 5
-0.01075222972789945 9 7 8 6
-0.0014379277163934045 9 7 8 7
0.00012299798774582235 9 7 8 8
0.00037289436733551874 9 7 9 1
0.0018015782182162383 9 7 9 2
0.006176943145589815 9 7 9 3
7.640938165784536e-05 9 7 9 4
-0.0005217591603262819 9 7 9 5
0.0006577945183565561 9 7 9 6
0.05635088734821465 9 7 9 7
0.0024000970599358296 9 8 1 1
0.005011302340851284 9 8 2 1
0.0018343889412629128 9 8 2 2
-0.0006706400700442129 9 8 3 1
-0.0010678405161915685 9 8 3 2
0.0006541157370451213 9 8 3 3
-0.0020411781202983523 9 8 4 1
-0.023195567571527822 9 8 4 2
0.0025831246503225705 9 8 4 3
-0.003699532721681276 9 8 4 4
0.0027229339030984145 9 8 5 1
0.0010123284662240327 9 8 5 2
0.0010107141194631482 9 8 5 3
-0.026447846526655123 9 8 5 4
0.002672889123111842 9 8 5 5
2.741391969841043e-05 9 8 6 1
0.0005050043026659822 9 8 6 2
-0.03389948692693284 9 8 6 3
-0.0035465867867208877 9 8 6 4
0.0019545328174439816 9 8 6 5
-0.0015429452326409748 9 8 6 6
8.448575185919874e-06 9 8 7 1
0.0001539201731928392 9 8 7 2
0.0014357648900658905 9 8 7 3
0.0003910169500059167 9 8 7 4
0.00011618463649047745 9 8 7 5
-0.009926343082831366 9 8 7 6
-0.0016021316711410764 9 8 7 7
0.003847375752867006 9 8 8 1
0.0001745509089690945 9 8 8 2
0.0010401127564879586 9 8 8 3
-0.005917577197928831 9 8 8 4
-0.00011957517278271608 9 8 8 5
-0.0012234325154305433 9 8 8 6
0.0009005914724698466 9 8 8 7
-0.003602111612027065 9 8 8 8
-0.0011515002958429991 9 8 9 1
-0.014495990147334959 9 8 9 2
0.0007414300812796593 9 8 9 3
-0.001136367879216411 9 8 9 4
0.00371371826502888 9 8 9 5
0.0003694232264766929 9 8 9 6