 &FCI NORB=12,NELEC=14,MS2=0,
  ORBSYM=1,1,1,1,1,1,1,1,1,1,1,1,1,1,1,1,1,1,1,1,
  ISYM=1,
 &END
0.2650838194418972 1 1 1 1
0.002042941093878066 2 1 1 1
0.033775001262701526 2 1 2 1
0.22539506216914507 2 2 1 1
-0.0038206244297191586 2 2 2 1
0.2078499293991277 2 2 2 2
4.8444702617580015e-05 3 1 1 1
0.002751628854411706 3 1 2 1
-0.0013701647971430227 3 1 2 2
0.006766380759379501 3 1 3 1
0.019331969593959587 3 2 1 1
-0.0006114030314728266 3 2 2 1
0.012924869333827853 3 2 2 2
5.432260297435852e-06 3 2 3 1
0.008129758523203042 3 2 3 2
0.294004336779695 3 3 1 1
0.0019198413211006873 3 3 2 1
0.24271655810580883 3 3 2 2
-0.00043823431931652067 3 3 3 1
0.03064678297091303 3 3 3 2
0.41128711919098926 3 3 3 3
0.00015700997131628874 4 1 1 1
0.006885237261999873 4 1 2 1
-0.002645611620483242 4 1 2 2
0.0015964990646872906 4 1 3 1
-0.0001691937755153499 4 1 3 2
-0.0008179005447003525 4 1 3 3
0.009055918952792523 4 1 4 1
0.019161004389728092 4 2 1 1
-0.0025044336437848487 4 2 2 1
0.012752404159980336 4 2 2 2
4.3764419342444866e-05 4 2 3 1
0.0045754223936030165 4 2 3 2
0.02099078590840763 4 2 3 3
-0.00027008355218390923 4 2 4 1
0.010379469520937311 4 2 4 2
-0.004783537007509704 4 3 1 1
-0.00012730896158690203 4 3 2 1
-0.003390384257667647 4 3 2 2
-5.775638609939738e-05 4 3 3 1
-0.0008996492797092266 4 3 3 2
-0.010204785277457346 4 3 3 3
-5.976008650344707e-05 4 3 4 1
-0.00045366363998457666 4 3 4 2
0.005273043832340573 4 3 4 3
0.24109337258375588 4 4 1 1
-0.0010712909941114686 4 4 2 1
0.21478502203598374 4 4 2 2
-0.0003708339066202428 4 4 3 1
0.016708966790418073 4 4 3 2
0.2681941539087569 4 4 3 3
-0.00015324859961987793 4 4 4 1
0.018730557931472436 4 4 4 2
-0.005458920759624822 4 4 4 3
0.24646970096658324 4 4 4 4
0.0003592742293378308 5 1 1 1
-0.0001277027446032007 5 1 2 1
0.0001695574799827744 5 1 2 2
-0.0008988839675510607 5 1 3 1
-9.011866955880022e-05 5 1 3 2
-8.55955932958628e-05 5 1 3 3
-0.0016708247101804377 5 1 4 1
-9.972491878836308e-05 5 1 4 2
0.00021886939802229704 5 1 4 3
-0.0005320084611204689 5 1 4 4
0.01601681584033135 5 1 5 1
-0.0005008084966169352 5 2 1 1
-0.0001112901057739782 5 2 2 1
-0.00019370207126838374 5 2 2 2
-1.9072963793577342e-05 5 2 3 1
-0.0001456624938897513 5 2 3 2
-0.0014274301570356893 5 2 3 3
0.00010393509240098591 5 2 4 1
-0.00014097681675220703 5 2 4 2
0.0005762684189416621 5 2 4 3
-0.0018312553549309943 5 2 4 4
-0.00013301828672950748 5 2 5 1
0.003703619503799001 5 2 5 2
-1.1064864771700728e-05 5 3 1 1
2.5872584552564772e-05 5 3 2 1
0.00010522105885458722 5 3 2 2
5.72514421321742e-05 5 3 3 1
-5.7949742955724605e-06 5 3 3 2
0.00028195467558975775 5 3 3 3
6.615598422184505e-05 5 3 4 1
-0.0002958251546348787 5 3 4 2
0.00022380980397532533 5 3 4 3
-0.000262829731130841 5 3 4 4
-0.0003560517714730496 5 3 5 1
-0.00012020764784276839 5 3 5 2
0.0065679014412327675 5 3 5 3
0.020844045351610344 5 4 1 1
0.0011295801021823319 5 4 2 1
0.010719413145199922 5 4 2 2
0.00010957664346414222 5 4 3 1
0.004005819599198526 5 4 3 2
0.05209014442616446 5 4 3 3
2.0679040847471838e-05 5 4 4 1
-0.00014516934920245575 5 4 4 2
-0.0014676298815460684 5 4 4 3
0.010651299097397265 5 4 4 4
-0.0003165256530105276 5 4 5 1
-0.00047279861413747923 5 4 5 2
-0.0003759925095293539 5 4 5 3
0.02309813960036344 5 4 5 4
0.2776331328383859 5 5 1 1
0.0019245985483961876 5 5 2 1
0.23144430500336183 5 5 2 2
-0.0003659036248786096 5 5 3 1
0.026732470486944906 5 5 3 2
0.3699616478935323 5 5 3 3
-0.0007570108670472464 5 5 4 1
0.01821108716754652 5 5 4 2
-0.00813468496595249 5 5 4 3
0.25533171253663434 5 5 4 4
-7.453402185612966e-05 5 5 5 1
-0.001379915553506669 5 5 5 2
0.0002681476278536354 5 5 5 3
0.048273215626286836 5 5 5 4
0.3556998271745115 5 5 5 5
-1.8332257859472656e-05 6 1 1 1
-0.00010961297042858316 6 1 2 1
0.00026861120048222986 6 1 2 2
-3.387812831695374e-05 6 1 3 1
-5.200004876786714e-05 6 1 3 2
-0.0011910071233242946 6 1 3 3
-0.00015775549930496704 6 1 4 1
0.00028251480947980766 6 1 4 2
-0.00011690987196575573 6 1 4 3
-0.0003243779332594557 6 1 4 4
0.0009035795476948172 6 1 5 1
0.00010345617723772578 6 1 5 2
0.0007451221311991711 6 1 5 3
-0.0007063596699890087 6 1 5 4
-0.0010649965876786426 6 1 5 5
0.0031092650716668248 6 1 6 1
0.0002947229501752957 6 2 1 1
0.000744486900473273 6 2 2 1
6.617830617233513e-06 6 2 2 2
-0.0002204252750944807 6 2 3 1
5.14170251839433e-05 6 2 3 2
0.00044165579543549015 6 2 3 3
0.0006258289980155538 6 2 4 1
-0.0002355105863234535 6 2 4 2
0.0001154641041338467 6 2 4 3
0.00031263371775018485 6 2 4 4
0.004266984498396625 6 2 5 1
-1.776460124236722e-05 6 2 5 2
-0.00012216608724875547 6 2 5 3
0.00016530631143440338 6 2 5 4
0.00042098596678647425 6 2 5 5
0.0003208023651246166 6 2 6 1
0.00506308973532848 6 2 6 2
0.0008601760591846065 6 3 1 1
-0.0009293290915105765 6 3 2 1
0.0006431622538565903 6 3 2 2
-0.0021149503605530553 6 3 3 1
-0.0001617770912305672 6 3 3 2
0.00015344898480912318 6 3 3 3
-0.004680434337242464 6 3 4 1
-0.00022147260556202138 6 3 4 2
0.0003876892263424578 6 3 4 3
-0.0010661689435070162 6 3 4 4
0.02385271294022353 6 3 5 1
-0.0006212857855888186 6 3 5 2
-0.0006907025524402303 6 3 5 3
-0.0006172288456519232 6 3 5 4
6.944653982648503e-05 6 3 5 5
0.0016995366979926138 6 3 6 1
0.0071096284065278155 6 3 6 2
0.06037489022224519 6 3 6 3
8.338252395643125e-06 6 4 1 1
-0.001857861581849641 6 4 2 1
-0.00013890145140759262 6 4 2 2
-0.0008788996711214493 6 4 3 1
-6.0799428285220967e-05 6 4 3 2
0.00013344743952218975 6 4 3 3
-0.0009810709253322701 6 4 4 1
-8.77373840749924e-05 6 4 4 2
0.0001927416493315202 6 4 4 3
-0.0003112495142734249 6 4 4 4
0.008904563573507905 6 4 5 1
2.5870732033604172e-05 6 4 5 2
-0.00023962754486824955 6 4 5 3
-7.325882369279885e-05 6 4 5 4
4.75979785316948e-05 6 4 5 5
0.0006842569999234526 6 4 6 1
0.0032183533780069853 6 4 6 2
0.01658944922924335 6 4 6 3
0.010454557100413939 6 4 6 4
-3.776253651738591e-05 6 5 1 1
-0.003418544552378965 6 5 2 1
-0.0005394106782691564 6 5 2 2
0.0012455796942805566 6 5 3 1
5.3094406045103956e-05 6 5 3 2
3.0284007482565054e-05 6 5 3 3
0.0009883458129101603 6 5 4 1
0.0005187863534151747 6 5 4 2
-8.244573080254455e-05 6 5 4 3
0.000232297886112365 6 5 4 4
-0.0016253851857603472 6 5 5 1
5.278891644120616e-05 6 5 5 2
5.983352903141073e-05 6 5 5 3
-2.57134828836418e-05 6 5 5 4
-0.0001045103163159396 6 5 5 5
-0.000124293639661991 6 5 6 1
-0.000539809552430772 6 5 6 2
-0.003257821844278494 6 5 6 3
0.0022948205350057467 6 5 6 4
0.009736805891680954 6 5 6 5
0.28114286717390274 6 6 1 1
0.002350913705854904 6 6 2 1
0.23051558572633016 6 6 2 2
-7.74132847101784e-05 6 6 3 1
0.024705915012592814 6 6 3 2
0.3746860676086067 6 6 3 3
-0.0006515480835901791 6 6 4 1
0.015989266886369004 6 6 4 2
-0.005677618141420132 6 6 4 3
0.24837716714934352 6 6 4 4
-0.00025161592814116815 6 6 5 1
-0.001592689955151253 6 6 5 2
-0.00010712967638272223 6 6 5 3
0.05201125587914223 6 6 5 4
0.3491029469328067 6 6 5 5
-0.001450112057389087 6 6 6 1
0.00048362442030091917 6 6 6 2
-0.00041068202497567625 6 6 6 3
1.7642397183762718e-06 6 6 6 4
-8.160097610239431e-05 6 6 6 5
0.3823492413145882 6 6 6 6
-0.0016257865625386042 7 1 1 1
-0.018036219373068797 7 1 2 1
0.0032030642337338103 7 1 2 2
-0.0018697412625973049 7 1 3 1
0.0003688348231608157 7 1 3 2
0.0006444007055111407 7 1 3 3
-0.005699604126427066 7 1 4 1
0.0007591580951323947 7 1 4 2
4.719720755984479e-05 7 1 4 3
0.0003209025008213489 7 1 4 4
-0.0004947411768852977 7 1 5 1
5.7514299122994486e-05 7 1 5 2
-1.955543044779458e-05 7 1 5 3
0.0003740597487125859 7 1 5 4
0.0006809632475888717 7 1 5 5
-3.929415015900844e-05 7 1 6 1
-0.0006686968938786065 7 1 6 2
-0.00033803591136904917 7 1 6 3
-0.0007222178348880955 7 1 6 4
-0.0022075523890599255 7 1 6 5
0.0006588601539512365 7 1 6 6
0.01809452261321606 7 1 7 1
0.020396013947133786 7 2 1 1
0.003031161823311446 7 2 2 1
0.010194014109039976 7 2 2 2
0.00032515232009175333 7 2 3 1
0.004143550220495817 7 2 3 2
0.0620987872725005 7 2 3 3
0.0005295587086456215 7 2 4 1
-0.0004596815773865684 7 2 4 2
-0.0025621361828330174 7 2 4 3
0.011960140367060935 7 2 4 4
5.67994824670907e-05 7 2 5 1
-0.000689868983468765 7 2 5 2
0.00014511674504753266 7 2 5 3
0.02177808173341383 7 2 5 4
0.054593301836371344 7 2 5 5
-0.0007691355326531366 7 2 6 1
0.0002389462216171028 7 2 6 2
0.00010121434861159105 7 2 6 3
0.0001616117729269199 7 2 6 4
1.5391659658975944e-05 7 2 6 5
0.06354116977527935 7 2 6 6
-0.0004155459785501168 7 2 7 1
0.03518308076181638 7 2 7 2
0.007434899066094371 7 3 1 1
0.0003882240894679578 7 3 2 1
0.005638568446375945 7 3 2 2
5.094797437505857e-05 7 3 3 1
0.005363801940424362 7 3 3 2
0.018529538885738488 7 3 3 3
0.00011760138122317849 7 3 4 1
0.0014059406027592226 7 3 4 2
-0.0009450827911584684 7 3 4 3
0.0069312504274147285 7 3 4 4
-0.00043147547817358294 7 3 5 1
-0.00018198214038301667 7 3 5 2
8.322690550610828e-05 7 3 5 3
0.004265674443065575 7 3 5 4
0.016505719385602524 7 3 5 5
-0.00010831362181855207 7 3 6 1
-6.407773938835596e-05 7 3 6 2
-0.0009194793907606946 7 3 6 3
-0.0003208272731644192 7 3 6 4
0.0001005003040326665 7 3 6 5
0.01237901555348618 7 3 6 6
5.924491596222582e-05 7 3 7 1
0.0076737554340858315 7 3 7 2
0.010880407547735489 7 3 7 3
-0.008081551440343124 7 4 1 1
0.0006518291894577538 7 4 2 1
-0.005757514237103567 7 4 2 2
7.301701935684749e-05 7 4 3 1
-0.0014514733244911347 7 4 3 2
-0.005043646082438336 7 4 3 3
0.00017933643695689237 7 4 4 1
-0.0035995747850790663 7 4 4 2
0.0007342092019778846 7 4 4 3
-0.00759749890049191 7 4 4 4
7.525074513537896e-05 7 4 5 1
0.0018525017172117625 7 4 5 2
-0.00031446680720630804 7 4 5 3
0.0020658418988005666 7 4 5 4
-0.004084405268528396 7 4 5 5
-0.00016583797991222797 7 4 6 1
0.00010127175454925283 7 4 6 2
-5.3934281866963596e-05 7 4 6 3
0.0001919987922283635 7 4 6 4
3.2195200672426144e-05 7 4 6 5
-0.003931979760504105 7 4 6 6
-0.00013520751672130833 7 4 7 1
0.003166308145755813 7 4 7 2
0.00013563629395202222 7 4 7 3
0.005230867680704794 7 4 7 4
-0.0001450379440811996 7 5 1 1
0.00012461734827541484 7 5 2 1
-0.0003057817523861587 7 5 2 2
-4.409661951106454e-05 7 5 3 1
-8.4853148124944e-05 7 5 3 2
-0.00020762832241111656 7 5 3 3
-2.791394134807701e-05 7 5 4 1
0.0016102641794991013 7 5 4 2
0.00033881713082746664 7 5 4 3
-0.0003184789812189189 7 5 4 4
0.00018614172535714652 7 5 5 1
0.0025331238781363735 7 5 5 2
0.0004902913629842923 7 5 5 3
0.0004358428515170619 7 5 5 4
-8.328800830318109e-05 7 5 5 5
-0.0009056205134585925 7 5 6 1
0.00013538940942613438 7 5 6 2
0.00029455707433426995 7 5 6 3
9.868320910728532e-05 7 5 6 4
-3.25912309783307e-05 7 5 6 5
0.00034084641129642873 7 5 6 6
-3.91274594275031e-05 7 5 7 1
0.0001449516534470456 7 5 7 2
-7.834057132873999e-05 7 5 7 3
0.0019662171586693187 7 5 7 4
0.009604243222396678 7 5 7 5
-0.000806559267418809 7 6 1 1
0.00011480195430647546 7 6 2 1
-0.00048522569020054645 7 6 2 2
0.0013431046091111356 7 6 3 1
0.00015155617289403715 7 6 3 2
-0.0003657065380733636 7 6 3 3
0.005168076471534185 7 6 4 1
0.00018230791220903066 7 6 4 2
-0.0002361471815172331 7 6 4 3
0.0009475184577778556 7 6 4 4
-0.015157404416204995 7 6 5 1
0.0006419146809522627 7 6 5 2
0.00045665853805970175 7 6 5 3
0.0003274842339789665 7 6 5 4
-0.00024165863459443127 7 6 5 5
-0.0011165612018257068 7 6 6 1
6.916760062967277e-05 7 6 6 2
-0.035517812246443355 7 6 6 3
-0.011720087754047242 7 6 6 4
0.002507283347275316 7 6 6 5
0.00014892890737770693 7 6 6 6
0.0005108174545409124 7 6 7 1
-0.0001447741665965862 7 6 7 2
0.0006210543384544256 7 6 7 3
3.154336705548112e-05 7 6 7 4
-0.00022941820704893386 7 6 7 5
0.03643406025735066 7 6 7 6
0.2815801897484898 7 7 1 1
0.0012064114974313595 7 7 2 1
0.23867046841930983 7 7 2 2
-0.0005028483273945689 7 7 3 1
0.025229304078187666 7 7 3 2
0.3557670609103938 7 7 3 3
-0.0007187436761268418 7 7 4 1
0.02089613044639593 7 7 4 2
-0.009340495962245473 7 7 4 3
0.25598713548713753 7 7 4 4
-0.00022630366836084499 7 7 5 1
-0.0011051637807254 7 7 5 2
0.00033484489881598696 7 7 5 3
0.03942445772061462 7 7 5 4
0.3314374863842365 7 7 5 5
-0.0005525411415518162 7 7 6 1
0.0003044112874351458 7 7 6 2
-9.827993116750581e-05 7 7 6 3
-0.0002073770196595777 7 7 6 4
-3.833948122512385e-05 7 7 6 5
0.3417398770323526 7 7 6 6
0.0005419645495206044 7 7 7 1
0.053348195025448464 7 7 7 2
0.01493736689844575 7 7 7 3
-0.006806468116215575 7 7 7 4
-0.00012463981636999706 7 7 7 5
1.0800458350751821e-05 7 7 7 6
0.3456668025355322 7 7 7 7
0.0002953936010364716 8 1 1 1
0.01004133410943396 8 1 2 1
-0.0025559287802635897 8 1 2 2
0.0031430393894368975 8 1 3 1
-0.0003705205743091589 8 1 3 2
-0.001518764854503523 8 1 3 3
0.0027143270937399705 8 1 4 1
-0.0005291109205380274 8 1 4 2
2.6469378156487136e-05 8 1 4 3
-0.000770448860806019 8 1 4 4
0.0016858793921289076 8 1 5 1
-5.025321219284196e-05 8 1 5 2
-3.0532427933712214e-05 8 1 5 3
-0.00040406460336058473 8 1 5 4
-0.0013587154710795674 8 1 5 5
9.26076556762547e-05 8 1 6 1
0.0008166063448567952 8 1 6 2
0.0030213358595488427 8 1 6 3
0.0015006816470900352 8 1 6 4
-0.00014905154041294755 8 1 6 5
-0.0016173984730978614 8 1 6 6
-0.008045224862072662 8 1 7 1
4.020702689628399e-05 8 1 7 2
-0.0002557403255468824 8 1 7 3
0.00011521387763997016 8 1 7 4
4.5895491827359716e-05 8 1 7 5
-0.002391152031924704 8 1 7 6
-0.0014571657454296586 8 1 7 7
0.00993878801573535 8 1 8 1
-0.01388431353513104 8 2 1 1
-0.00286694865491671 8 2 2 1
-0.0069096634125202765 8 2 2 2
3.7594517175292417e-06 8 2 3 1
-0.0037459456709317833 8 2 3 2
-0.039309942974681676 8 2 3 3
-0.00012453281698458844 8 2 4 1
0.00042648614375609146 8 2 4 2
0.0011018341807509757 8 2 4 3
-0.008856482594935346 8 2 4 4
-0.0001344466665785045 8 2 5 1
0.000523256787650464 8 2 5 2
-1.514427910075113e-05 8 2 5 3
-0.013798503177096366 8 2 5 4
-0.035937800903455226 8 2 5 5
0.000662239970621916 8 2 6 1
-0.00026875291733468795 8 2 6 2
-0.0001912462338498421 8 2 6 3
-6.246111022378013e-05 8 2 6 4
0.000435609524551151 8 2 6 5
-0.04104171676566802 8 2 6 6
0.0005476970518754694 8 2 7 1
-0.019463791807560648 8 2 7 2
-0.0051038608013350304 8 2 7 3
-0.0028244799884450202 8 2 7 4
-0.0001124153146804838 8 2 7 5
0.00021991598908029762 8 2 7 6
-0.03079542816702812 8 2 7 7
-0.00014041838561440416 8 2 8 1
0.015273860053081777 8 2 8 2
0.008445760130821944 8 3 1 1
4.440362924332275e-05 8 3 2 1
0.006711467771823327 8 3 2 2
-0.00017913516552515145 8 3 3 1
0.0003007137533596374 8 3 3 2
0.018647123929526742 8 3 3 3
-9.862412686620233e-05 8 3 4 1
0.0013761711427442245 8 3 4 2
-0.0036546391958972324 8 3 4 3
0.0086633872706392 8 3 4 4
-2.6424313325563218e-05 8 3 5 1
-0.0001815540837097215 8 3 5 2
0.0002358611521888392 8 3 5 3
0.003420783655523099 8 3 5 4
0.0140692999471648 8 3 5 5
0.0001433097896529799 8 3 6 1
4.520589363152158e-05 8 3 6 2
-1.3983316865320313e-06 8 3 6 3
-2.2929061481057824e-05 8 3 6 4
6.770132717240613e-05 8 3 6 5
0.007578392975142704 8 3 6 6
0.000225200598315039 8 3 7 1
0.0062090830767802755 8 3 7 2
0.0016469435148279794 8 3 7 3
-0.0003185873215540002 8 3 7 4
-0.0001557826005454277 8 3 7 5
7.497386077713559e-05 8 3 7 6
0.017853912145476502 8 3 7 7
-0.0002309570476621381 8 3 8 1
-0.002540984041968033 8 3 8 2
0.010990275645272326 8 3 8 3
-0.029576806738077395 8 4 1 1
-0.0010468442211805115 8 4 2 1
-0.01727575935035256 8 4 2 2
-5.942633646965387e-05 8 4 3 1
-0.006360558102956597 8 4 3 2
-0.057528290674989394 8 4 3 3
0.00011683228166383335 8 4 4 1
-0.003425084914446006 8 4 4 2
0.0023609845645390826 8 4 4 3
-0.020210529804833406 8 4 4 4
0.00014763223958811668 8 4 5 1
-0.0007197199120112825 8 4 5 2
0.00031455975573480715 8 4 5 3
-0.0158768865077189 8 4 5 4
-0.050861445107565906 8 4 5 5
0.0004176801304878613 8 4 6 1
2.881067530080264e-05 8 4 6 2
0.00022123827355393025 8 4 6 3
0.00020036613975239 8 4 6 4
2.662394344571988e-05 8 4 6 5
-0.057775098790682884 8 4 6 6
-5.715622486848797e-05 8 4 7 1
-0.020830620797486755 8 4 7 2
-0.0054005945553226055 8 4 7 3
-0.0003432555372255012 8 4 7 4
0.0013638967720468306 8 4 7 5
-7.186173580118736e-05 8 4 7 6
-0.04946103718068272 8 4 7 7
0.00032617006559316564 8 4 8 1
0.013509024401200644 8 4 8 2
-0.004878415619482855 8 4 8 3
0.020707480034704823 8 4 8 4
0.0005671670914487593 8 5 1 1
-1.311409286749917e-05 8 5 2 1
0.00023401763210206749 8 5 2 2
-9.03564268638288e-05 8 5 3 1
8.232566814278502e-05 8 5 3 2
0.0003996424733902678 8 5 3 3
-6.844930228399991e-05 8 5 4 1
-0.002038602067580127 8 5 4 2
-0.0002667156835105747 8 5 4 3
-0.0010967307866073595 8 5 4 4
0.0008366688105431332 8 5 5 1
-0.002394386175608417 8 5 5 2
0.0017097268695566467 8 5 5 3
-0.0012011761902595184 8 5 5 4
0.0007456584940788242 8 5 5 5
-0.0011287080785833633 8 5 6 1
0.0005271168846638823 8 5 6 2
0.0017547240684095073 8 5 6 3
0.0006485221642489037 8 5 6 4
-0.00013492948661039152 8 5 6 5
0.0015187631285149541 8 5 6 6
4.191625530586972e-05 8 5 7 1
0.00039009058010320197 8 5 7 2
0.00017139509680058797 8 5 7 3
0.00010912973836142755 8 5 7 4
0.0011331568220292266 8 5 7 5
-0.0012147427324472502 8 5 7 6
0.0008542301944206505 8 5 7 7
5.403191493959322e-05 8 5 8 1
-0.0004088342941268287 8 5 8 2
0.00014582236676403864 8 5 8 3
0.0026692821582009452 8 5 8 4
0.009863443860003046 8 5 8 5
-0.0011974199710193243 8 6 1 1
0.002201802084570524 8 6 2 1
-0.0010916558395585928 8 6 2 2
0.0028373904847194585 8 6 3 1
0.00024357065146173498 8 6 3 2
-0.00015892544122654684 8 6 3 3
0.00680101824882029 8 6 4 1
0.00021481326925134746 8 6 4 2
-0.0004623136865638629 8 6 4 3
0.0017721868063846878 8 6 4 4
-0.033695656679119314 8 6 5 1
0.0009815550956858517 8 6 5 2
0.0009211620476981359 8 6 5 3
0.0009102743232185173 8 6 5 4
-0.0001222045474515601 8 6 5 5
-0.0025195122829117116 8 6 6 1
-0.010012106120179737 8 6 6 2
-0.06766804953818603 8 6 6 3
-0.02602816591523777 8 6 6 4
0.004534925129028682 8 6 6 5
0.0006491481194583323 8 6 6 6
0.0001499175849258945 8 6 7 1
-4.292029209697386e-05 8 6 7 2
0.0012293890607690092 8 6 7 3
5.047334456193125e-05 8 6 7 4
-0.0004467306501685916 8 6 7 5
0.051501016215200174 8 6 7 6
0.0002629859144095348 8 6 7 7
-0.003917679057058106 8 6 8 1
0.0002503475726808841 8 6 8 2
-1.4875271192591637e-05 8 6 8 3
-0.00039176731171234995 8 6 8 4
-0.002516744134730056 8 6 8 5
0.10630650577397306 8 6 8 6
-0.011452019678552791 8 7 1 1
0.0008211707521171872 8 7 2 1
-0.010707730994821862 8 7 2 2
0.00016619125109166796 8 7 3 1
-0.0035738392564108696 8 7 3 2
-0.011613665405226344 8 7 3 3
0.00011949521613419743 8 7 4 1
-0.005332046513346765 8 7 4 2
0.0011050885727151088 8 7 4 3
-0.012509855885306799 8 7 4 4
0.00018484173079738567 8 7 5 1
-0.00014401317168053076 8 7 5 2
-2.998608966028843e-05 8 7 5 3
0.001992487275099926 8 7 5 4
-0.00973360245020839 8 7 5 5
-0.0002907194953107093 8 7 6 1
8.327042388878846e-05 8 7 6 2
0.00034692529323108453 8 7 6 3
0.00015015742455586027 8 7 6 4
-0.00022488058816990436 8 7 6 5
-0.0007391275191502619 8 7 6 6
-9.821944068142301e-05 8 7 7 1
0.0027847912166432303 8 7 7 2
-0.0013538723713327192 8 7 7 3
0.0011930566986370168 8 7 7 4
8.863468412126005e-05 8 7 7 5
-0.0002461315651747921 8 7 7 6
-0.011945169178730047 8 7 7 7
0.00023151462123545465 8 7 8 1
-0.000648052096532004 8 7 8 2
-0.001670858046113279 8 7 8 3
0.0006538033093843326 8 7 8 4
0.00031354304591240534 8 7 8 5
-0.00042976896269857876 8 7 8 6
0.009819815583680683 8 7 8 7
0.2741578752330472 8 8 1 1
0.0012512639791515973 8 8 2 1
0.2312190558542614 8 8 2 2
-0.00037154273871259624 8 8 3 1
0.02418126062935408 8 8 3 2
0.3495953718486736 8 8 3 3
-0.0007977922706738503 8 8 4 1
0.019034697876064325 8 8 4 2
-0.008273022274080888 8 8 4 3
0.2489686282347765 8 8 4 4
2.374153074199308e-05 8 8 5 1
-0.0013575269227540736 8 8 5 2
0.00018379469907190215 8 8 5 3
0.041382647215247405 8 8 5 4
0.3280802490644592 8 8 5 5
-0.0009549156089662439 8 8 6 1
0.0004031820166052898 8 8 6 2
0.00024374967208476688 8 8 6 3
-7.43206717347523e-06 8 8 6 4
-0.00021055478124922374 8 8 6 5
0.3457323920348285 8 8 6 6
0.0008407136217115244 8 8 7 1
0.053368873104057336 8 8 7 2
0.01643874465851621 8 8 7 3
-0.004891212997115327 8 8 7 4
-0.0004797801859995745 8 8 7 5
-0.00031226697429671433 8 8 7 6
0.3287777997254471 8 8 7 7
-0.0016174045758997678 8 8 8 1
-0.03535804286544525 8 8 8 2
0.015009205551763178 8 8 8 3
-0.052630866721758 8 8 8 4
0.0007191013599787412 8 8 8 5
-0.00031291697800447623 8 8 8 6
-0.008904257629592599 8 8 8 7
0.33492678437511636 8 8 8 8
0.0033223095275379524 9 1 1 1
-0.0015649983940789244 9 1 2 1
0.0018802120154127458 9 1 2 2
-0.0025182220893394175 9 1 3 1
0.00033416013231903405 9 1 3 2
0.005055583582418014 9 1 3 3
-0.0047650412489903945 9 1 4 1
-0.00022143813341862529 9 1 4 2
0.0004979288088028905 9 1 4 3
0.0011410252302056132 9 1 4 4
0.02663193907018115 9 1 5 1
-0.0002620989936750904 9 1 5 2
-0.0006877651418985882 9 1 5 3
0.0006778982830009204 9 1 5 4
0.004501548308463036 9 1 5 5
0.001991329353613522 9 1 6 1
0.008286558599528494 9 1 6 2
0.0522740327965377 9 1 6 3
0.02130967827634934 9 1 6 4
-0.0034880050139601453 9 1 6 5
0.004660322199806134 9 1 6 6
4.5428230496622785e-05 9 1 7 1
0.001978190325763659 9 1 7 2
-0.0005906558642545909 9 1 7 3
0.0001816057765054524 9 1 7 4
0.00040101071975956454 9 1 7 5
-0.0380495998017344 9 1 7 6
0.0038318131051315804 9 1 7 7
0.0031225010713953187 9 1 8 1
-0.0013577698921162908 9 1 8 2
0.0002867886343430956 9 1 8 3
-0.000920205552493982 9 1 8 4
0.002044919035936269 9 1 8 5
-0.07173632441765239 9 1 8 6
0.00045513424091811564 9 1 8 7
0.004425808432621844 9 1 8 8
0.06928437364686577 9 1 9 1
0.00016680036315246756 9 2 1 1
-0.0008365192879686715 9 2 2 1
0.000313824196122881 9 2 2 2
-3.0896254021582086e-05 9 2 3 1
9.278693194459874e-05 9 2 3 2
0.0011926553322124498 9 2 3 3
-0.0004290457625223776 9 2 4 1
0.0009587068332489357 9 2 4 2
9.574191039008673e-05 9 2 4 3
-0.002955306480832396 9 2 4 4
0.00015402207826694498 9 2 5 1
0.0010499827523290782 9 2 5 2
0.00038705198641068427 9 2 5 3
-0.0013197906963832054 9 2 5 4
0.0012638347565927216 9 2 5 5
0.001493200019987595 9 2 6 1
-2.7240104110533254e-05 9 2 6 2
0.0005200194011332231 9 2 6 3
0.0003337740146846271 9 2 6 4
1.0466968826865419e-05 9 2 6 5
0.001147209517556041 9 2 6 6
0.0006611364255387622 9 2 7 1
0.0007605390851748017 9 2 7 2
0.00023230609284399637 9 2 7 3
-0.000947861377831737 9 2 7 4
0.00019412093308574104 9 2 7 5
-0.00014913395089806496 9 2 7 6
0.0008289541479045873 9 2 7 7
-0.00032506783868509946 9 2 8 1
-4.8492285914875125e-05 9 2 8 2
2.951179707606782e-05 9 2 8 3
-0.0002892486322810036 9 2 8 4
-0.0003661717723154568 9 2 8 5
-0.00042679018248335744 9 2 8 6
0.0001343646602320447 9 2 8 7
0.0008202013190563672 9 2 8 8
0.0012452249679032398 9 2 9 1
0.007261345274912104 9 2 9 2
-0.0011983824268183383 9 3 1 1
-0.00011368364321160125 9 3 2 1
-0.0006813083832839961 9 3 2 2
0.0001664815399067519 9 3 3 1
-0.0001679743081645598 9 3 3 2
-0.0019228567438739914 9 3 3 3
5.609767906678978e-05 9 3 4 1
-0.0014129837266569755 9 3 4 2
-0.000801330570642975 9 3 4 3
0.0004903700507949967 9 3 4 4
8.379176352770312e-05 9 3 5 1
-0.002234515868123102 9 3 5 2
0.0009381060916594034 9 3 5 3
-0.0007112438563183796 9 3 5 4
-0.0013863021986175773 9 3 5 5
0.0012437172149281457 9 3 6 1
0.0002476007928475818 9 3 6 2
0.00036442751549277006 9 3 6 3
8.218406575760156e-05 9 3 6 4
-3.12928512372879e-05 9 3 6 5
-0.0009915398229939979 9 3 6 6
0.00014066113999268193 9 3 7 1
-0.0006771281898303631 9 3 7 2
-0.00018636825873838146 9 3 7 3
-0.001166112918710311 9 3 7 4
-0.0022392623749605445 9 3 7 5
-0.00024820872457826824 9 3 7 6
-0.0016481641557245222 9 3 7 7
1.831951368114278e-05 9 3 8 1
0.00024293678725703289 9 3 8 2
-9.935305865999558e-05 9 3 8 3
0.0016716067517982608 9 3 8 4
0.0037315358800434394 9 3 8 5
-0.00030984150759579834 9 3 8 6
0.00039659067044787945 9 3 8 7
-0.001496967625413401 9 3 8 8
0.00044837693923665184 9 3 9 1
-0.0007093406140153415 9 3 9 2
0.010869490481794624 9 3 9 3
-0.01664112118609732 9 4 1 1
-0.0008957190317718223 9 4 2 1
-0.009082841719849164 9 4 2 2
0.000177056267754281 9 4 3 1
-0.0024541091523551804 9 4 3 2
-0.032337680749440614 9 4 3 3
0.00034341274371668115 9 4 4 1
-0.0020767154853810568 9 4 4 2
0.002157937093438506 9 4 4 3
-0.009462000236492983 9 4 4 4
-0.0005542033365688013 9 4 5 1
-6.006823692915092e-05 9 4 5 2
-0.0003071535886181253 9 4 5 3
-0.008711371369567964 9 4 5 4
-0.027659782273344497 9 4 5 5
0.00032592383631823053 9 4 6 1
-0.00010340393630008197 9 4 6 2
-0.0013518397638764236 9 4 6 3
-0.0006024272867973878 9 4 6 4
0.00021917053684493938 9 4 6 5
-0.030889767448495982 9 4 6 6
0.00014582034719388653 9 4 7 1
-0.010954076304851892 9 4 7 2
-0.0006212098363669353 9 4 7 3
0.0008126341818933286 9 4 7 4
0.001254837143365038 9 4 7 5
0.00104565360338715 9 4 7 6
-0.027204216532386166 9 4 7 7
-6.250431900167888e-05 9 4 8 1
0.005694734491974547 9 4 8 2
-0.0030266160788892087 9 4 8 3
0.00956134355180476 9 4 8 4
0.0011616342779164426 9 4 8 5
0.0018262892317820482 9 4 8 6
9.185568771430166e-05 9 4 8 7
-0.025960612108484982 9 4 8 8
-0.0025587814968595223 9 4 9 1
-0.0020066972514528937 9 4 9 2
0.0009119022439780679 9 4 9 3
0.01004850850423853 9 4 9 4
0.005418021240300566 9 5 1 1
0.00012406748799054294 9 5 2 1
0.0016025041241215347 9 5 2 2
3.999234907975529e-05 9 5 3 1
0.0014614614457766346 9 5 3 2
0.0030949092173381742 9 5 3 3
-8.157525593478231e-05 9 5 4 1
6.767943514108746e-05 9 5 4 2
0.0009545558763386642 9 5 4 3
-0.00034781250380217616 9 5 4 4
0.0009351550862332505 9 5 5 1
-5.116065766868525e-05 9 5 5 2
-0.00023474145688559656 9 5 5 3
0.0011030233775959006 9 5 5 4
0.004493443910789389 9 5 5 5
-3.4760337924275164e-05 9 5 6 1
0.00026906990567035055 9 5 6 2
0.001541658758366657 9 5 6 3
0.000535945651422079 9 5 6 4
-0.00013972766302341875 9 5 6 5
0.008425024986321774 9 5 6 6
-8.793823971893506e-06 9 5 7 1
0.002285633983862239 9 5 7 2
0.0021949529943547973 9 5 7 3
7.710446435843059e-05 9 5 7 4
-0.000141601443639442 9 5 7 5
-0.0010597768457917224 9 5 7 6
0.003324817443551201 9 5 7 7
0.00011851414954227822 9 5 8 1
-0.002508444913630607 9 5 8 2
-0.0021673258952599377 9 5 8 3
-0.0025160479249006673 9 5 8 4
7.479866674504243e-05 9 5 8 5
-0.0021667466460677126 9 5 8 6
0.0008383956722406918 9 5 8 7
0.007205872521978799 9 5 8 8
0.001981134939287827 9 5 9 1
6.943396442422253e-05 9 5 9 2
-5.559661773194981e-05 9 5 9 3
0.0018230169900834282 9 5 9 4
0.008930825271918498 9 5 9 5
0.0004081643936617963 9 6 1 1
0.0024515349757318677 9 6 2 1
0.0005095922676922331 9 6 2 2
0.0010730949238484347 9 6 3 1
6.380944861779483e-05 9 6 3 2
0.00036178951298390454 9 6 3 3
-0.00019965210506729068 9 6 4 1
-0.0002630912715842688 9 6 4 2
7.040963874147513e-06 9 6 4 3
-9.830963735340205e-05 9 6 4 4
0.0023200806904758947 9 6 5 1
-5.646113339905775e-05 9 6 5 2
-2.6152223266650623e-05 9 6 5 3
3.889772634072863e-05 9 6 5 4
0.00038530779493918494 9 6 5 5
0.0003068879966570265 9 6 6 1
0.0007066045867642043 9 6 6 2
0.004892047313384627 9 6 6 3
0.00017835412458008158 9 6 6 4
-0.002206345719866833 9 6 6 5
0.00029328799322246346 9 6 6 6
-0.00038027683221228333 9 6 7 1
5.6122164532200516e-05 9 6 7 2
-4.756622211352855e-05 9 6 7 3
-3.5992365987082997e-06 9 6 7 4
-1.4353138657769409e-05 9 6 7 5
-0.0037616969517455675 9 6 7 6
0.0002337024894197389 9 6 7 7
-0.0020882199051397692 9 6 8 1
-0.0002826461729447611 9 6 8 2
6.11793187951941e-05 9 6 8 3
1.533533899423975e-05 9 6 8 4
0.00011349446926593153 9 6 8 5
-0.007182921374628544 9 6 8 6
2.261530607123247e-05 9 6 8 7
0.0001429241124470812 9 6 8 8
0.005321889503193177 9 6 9 1
5.975820598146402e-05 9 6 9 2
0.00021020723634938756 9 6 9 3
-0.0001984960979880697 9 6 9 4
0.00019044744224015135 9 6 9 5
0.007232770218376785 9 6 9 6
0.0006879299325478102 9 7 1 1
0.0007955592622244497 9 7 2 1
0.0005084361169035257 9 7 2 2
7.878802978084597e-05 9 7 3 1
0.00016051746175564072 9 7 3 2
0.0009169069780683618 9 7 3 3
0.00021379540597249387 9 7 4 1
-0.0010785723007089468 9 7 4 2
-0.00012924161168286128 9 7 4 3
-0.0001490454276961131 9 7 4 4
-7.898258866096495e-05 9 7 5 1
-0.00030337738334053376 9 7 5 2
0.0007140063284652665 9 7 5 3
-0.0008145821320700558 9 7 5 4
0.000978593965808502 9 7 5 5
-0.0008860874216733147 9 7 6 1
6.910303741853164e-05 9 7 6 2
-6.01121195541186e-05 9 7 6 3
-7.461166858780446e-05 9 7 6 4
-0.00012235479978192678 9 7 6 5
0.00020295472177678592 9 7 6 6
-0.00033338848274640194 9 7 7 1
-6.672554102493415e-05 9 7 7 2
7.762224587660296e-05 9 7 7 3
-0.0010091779705402122 9 7 7 4
0.0006247269588698313 9 7 7 5
5.3866717574062225e-05 9 7 7 6
0.0008951351486466519 9 7 7 7
0.00026507901000297847 9 7 8 1
0.00014679740723151416 9 7 8 2
0.0003101403662547346 9 7 8 3
0.0012600544973656446 9 7 8 4
0.0030607512428597722 9 7 8 5
9.04261624935079e-05 9 7 8 6
-0.00015599135369467223 9 7 8 7
0.0003758334295995145 9 7 8 8
1.4153222605085696e-05 9 7 9 1
0.0030453616369730055 9 7 9 2
0.0027497774572278386 9 7 9 3
0.00043332142491161384 9 7 9 4
-0.00029051888139372696 9 7 9 5
-7.496185491501346e-05 9 7 9 6
0.007360763761825531 9 7 9 7
0.00024431330560939805 9 8 1 1
-0.0004334471436289657 9 8 2 1
-7.4660284018394395e-06 9 8 2 2
-8.492808332839683e-05 9 8 3 1
-0.00025339053863696184 9 8 3 2
0.0006171202518081697 9 8 3 3
-0.00042138873719831327 9 8 4 1
-0.0005281354635499149 9 8 4 2
-0.0002682470982147022 9 8 4 3
0.0012885626422885208 9 8 4 4
0.0011039012131809308 9 8 5 1
-0.001250473581101334 9 8 5 2
-2.1495717409670204e-05 9 8 5 3
0.0007015990255529505 9 8 5 4
0.00027119440360841236 9 8 5 5
-0.0019191597070010594 9 8 6 1
0.00017877156001549948 9 8 6 2
0.002182584749479918 9 8 6 3
0.0008214906377418614 9 8 6 4
-0.00022324981128901876 9 8 6 5
0.0004344641699700579 9 8 6 6
0.0002842728112308163 9 8 7 1
0.00032370066791088573 9 8 7 2
-0.00042935090353611035 9 8 7 3
-0.0008018175536348139 9 8 7 4
-0.003065331088350362 9 8 7 5
-0.0017463000854372657 9 8 7 6
0.00019794970681019403 9 8 7 7
0.00011430486845049963 9 8 8 1
-0.0002009169838304609 9 8 8 2
2.6553662117292348e-05 9 8 8 3
-0.0015539097759491472 9 8 8 4
-0.0010002005812610238 9 8 8 5
-0.0032302723720861255 9 8 8 6
0.00041323057419488836 9 8 8 7
0.0005519290593930793 9 8 8 8
0.0023681934008203246 9 8 9 1
-0.00228560454006371 9 8 9 2
0.0017387139827524842 9 8 9 3
-0.002526548546382537 9 8 9 4
9.336221132905435e-05 9 8 9 5
4.453127925738798e-05 9 8 9 6
-0.0007735357297781354 9 8 9 7