#INFO: **** input file is /home/amychoi7/github_qChem2024/mySimul/genCASsimul/02_CAS/hs.py ****
#!/usr/bin/env python

from pyscf import scf
from pyscf import gto,dft

mol = gto.Mole()
mol.verbose = 6
mol.output = 'hs_bp86.out'
mol.atom = '''
S   0.04  -1.78  -1.292   
S  -0.04  1.78  -1.293   
S   1.78  -0.04  1.294   
S  -1.78  0.04   1.295   
Fe  0.05  -1.37  1.016   
Fe  -1.38  0.05  -1.007   
Fe  -0.05  1.38   1.008   
Fe  1.37  -0.05  -1.019   
S   0.24   3.30   2.1410  
S  -0.24  -3.29  2.1411  
S  -3.29  -0.24  -2.1412  
S   3.29   0.24  -2.1413  
C  -3.80  -1.84  -1.3814  
H  -3.91  -1.71  -0.2915  
H  -4.76  -2.17  -1.8116  
H  -3.03  -2.60  -1.5617  
C   3.80   1.83  -1.3818  
H   3.91   1.71  -0.2919  
H   4.76   2.16  -1.8120  
H   3.03   2.59  -1.5521  
C  -1.83  -3.80  1.3822  
H  -2.16  -4.76  1.8123  
H  -2.59  -3.03  1.5524  
H  -1.70  -3.91  0.2925  
C   1.84   3.80   1.3826  
H   2.17   4.76   1.8127  
H   2.60   3.03   1.5628  
H   1.71   3.91   0.29
'''
mol.charge = -2
mol.spin = 18 #na-nb
mol.build()

mf = scf.sfx2c(scf.UKS(mol))
mf.chkfile = 'hs_bp86.chk'
mf.max_cycle = 500
mf.conv_tol = 1.e-4
mf.xc = 'b88,p86' 
mf.scf()

mf2 = scf.newton(mf)
#mf2.ah_start_tol = 1.e-8
#mf2.ah_conv_tol = 1.e-14
mf2.conv_tol = 1.e-12
mf2.kernel()
#INFO: ******************** input file end ********************


System: uname_result(system='Linux', node='node4', release='5.4.0-100-generic', version='#113-Ubuntu SMP Thu Feb 3 18:43:29 UTC 2022', machine='x86_64', processor='x86_64')  Threads 36
Python 3.7.12 | packaged by conda-forge | (default, Oct 26 2021, 06:08:21) 
[GCC 9.4.0]
numpy 1.21.5  scipy 1.7.3
Date: Tue Jan 23 14:23:43 2024
PySCF version 2.4.0
PySCF path  /home/amychoi7/programs/pyscf
GIT HEAD (branch master) 8b7c13a1f91c04bbfc5397800feb77506df5e7df

[CONFIG] conf_file None
[INPUT] verbose = 6
[INPUT] max_memory = 4000 
[INPUT] num. atoms = 28
[INPUT] num. electrons = 270
[INPUT] charge = -2
[INPUT] spin (= nelec alpha-beta = 2S) = 18
[INPUT] symmetry False subgroup None
[INPUT] Mole.unit = angstrom
[INPUT] Symbol           X                Y                Z      unit          X                Y                Z       unit  Magmom
[INPUT]  1 S      0.040000000000  -1.780000000000  -1.292000000000 AA    0.075589044983  -3.363712501726  -2.441526152938 Bohr   0.0
[INPUT]  2 S     -0.040000000000   1.780000000000  -1.293000000000 AA   -0.075589044983   3.363712501726  -2.443415879063 Bohr   0.0
[INPUT]  3 S      1.780000000000  -0.040000000000   1.294000000000 AA    3.363712501726  -0.075589044983   2.445305605187 Bohr   0.0
[INPUT]  4 S     -1.780000000000   0.040000000000   1.295000000000 AA   -3.363712501726   0.075589044983   2.447195331312 Bohr   0.0
[INPUT]  5 Fe     0.050000000000  -1.370000000000   1.016000000000 AA    0.094486306228  -2.588924790654   1.919961742558 Bohr   0.0
[INPUT]  6 Fe    -1.380000000000   0.050000000000  -1.007000000000 AA   -2.607822051900   0.094486306228  -1.902954207437 Bohr   0.0
[INPUT]  7 Fe    -0.050000000000   1.380000000000   1.008000000000 AA   -0.094486306228   2.607822051900   1.904843933562 Bohr   0.0
[INPUT]  8 Fe     1.370000000000  -0.050000000000  -1.019000000000 AA    2.588924790654  -0.094486306228  -1.925630920932 Bohr   0.0
[INPUT]  9 S      0.240000000000   3.300000000000   2.141000000000 AA    0.453534269896   6.236096211065   4.045903632694 Bohr   0.0
[INPUT] 10 S     -0.240000000000  -3.290000000000   2.141100000000 AA   -0.453534269896  -6.217198949819   4.046092605306 Bohr   0.0
[INPUT] 11 S     -3.290000000000  -0.240000000000  -2.141200000000 AA   -6.217198949819  -0.453534269896  -4.046281577919 Bohr   0.0
[INPUT] 12 S      3.290000000000   0.240000000000  -2.141300000000 AA    6.217198949819   0.453534269896  -4.046470550531 Bohr   0.0
[INPUT] 13 C     -3.800000000000  -1.840000000000  -1.381400000000 AA   -7.180959273347  -3.477096069200  -2.610467668474 Bohr   0.0
[INPUT] 14 H     -3.910000000000  -1.710000000000  -0.291500000000 AA   -7.388829147049  -3.231431673006  -0.550855165311 Bohr   0.0
[INPUT] 15 H     -4.760000000000  -2.170000000000  -1.811600000000 AA   -8.995096352930  -4.100705690306  -3.423427847262 Bohr   0.0
[INPUT] 16 H     -3.030000000000  -2.600000000000  -1.561700000000 AA   -5.725870157432  -4.913287923869  -2.951185288733 Bohr   0.0
[INPUT] 17 C      3.800000000000   1.830000000000  -1.381800000000 AA    7.180959273347   3.458198807954  -2.611223558924 Bohr   0.0
[INPUT] 18 H      3.910000000000   1.710000000000  -0.291900000000 AA    7.388829147049   3.231431673006  -0.551611055761 Bohr   0.0
[INPUT] 19 H      4.760000000000   2.160000000000  -1.812000000000 AA    8.995096352930   4.081808429061  -3.424183737712 Bohr   0.0
[INPUT] 20 H      3.030000000000   2.590000000000  -1.552100000000 AA    5.725870157432   4.894390662624  -2.933043917937 Bohr   0.0
[INPUT] 21 C     -1.830000000000  -3.800000000000   1.382200000000 AA   -3.458198807954  -7.180959273347   2.611979449374 Bohr   0.0
[INPUT] 22 H     -2.160000000000  -4.760000000000   1.812300000000 AA   -4.081808429061  -8.995096352930   3.424750655549 Bohr   0.0
[INPUT] 23 H     -2.590000000000  -3.030000000000   1.552400000000 AA   -4.894390662624  -5.725870157432   2.933610835775 Bohr   0.0
[INPUT] 24 H     -1.700000000000  -3.910000000000   0.292500000000 AA   -3.212534411761  -7.388829147049   0.552744891435 Bohr   0.0
[INPUT] 25 C      1.840000000000   3.800000000000   1.382600000000 AA    3.477096069200   7.180959273347   2.612735339824 Bohr   0.0
[INPUT] 26 H      2.170000000000   4.760000000000   1.812700000000 AA    4.100705690306   8.995096352930   3.425506545999 Bohr   0.0
[INPUT] 27 H      2.600000000000   3.030000000000   1.562800000000 AA    4.913287923869   5.725870157432   2.953263987470 Bohr   0.0
[INPUT] 28 H      1.710000000000   3.910000000000   0.290000000000 AA    3.231431673006   7.388829147049   0.548020576124 Bohr   0.0
[INPUT] ---------------- BASIS SET ---------------- 
[INPUT] l, kappa, [nprim/nctr], expnt,             c_1 c_2 ...
[INPUT] H
[INPUT] 0    0    [3    /1   ]  3.42525091        0.15432897
                                0.62391373        0.53532814
                                0.1688554         0.44463454
[INPUT] S
[INPUT] 0    0    [3    /1   ]  533.1257359       0.1543289673
                                97.1095183        0.5353281423
                                26.28162542       0.4446345422
[INPUT] 0    0    [3    /1   ]  33.32975173       -0.09996722919
                                7.745117521       0.3995128261
                                2.518952599       0.7001154689
[INPUT] 0    0    [3    /1   ]  2.029194274       -0.219620369
                                0.5661400518      0.2255954336
                                0.2215833792      0.900398426
[INPUT] 1    0    [3    /1   ]  33.32975173       0.155916275
                                7.745117521       0.6076837186
                                2.518952599       0.3919573931
[INPUT] 1    0    [3    /1   ]  2.029194274       0.01058760429
                                0.5661400518      0.5951670053
                                0.2215833792      0.462001012
[INPUT] Fe
[INPUT] 0    0    [3    /1   ]  1447.400411       0.1543289673
                                263.6457916       0.5353281423
                                71.35284019       0.4446345422
[INPUT] 0    0    [3    /1   ]  111.9194891       -0.0999672292
                                26.00768236       0.3995128261
                                8.45850549        0.7001154689
[INPUT] 0    0    [3    /1   ]  8.548569754       -0.2277635023
                                2.60758625        0.2175436044
                                1.00608784        0.9166769611
[INPUT] 0    0    [3    /1   ]  0.5921156814      -0.3088441215
                                0.2185279254      0.0196064117
                                0.0965042359      1.131034442
[INPUT] 1    0    [3    /1   ]  111.9194891       0.155916275
                                26.00768236       0.6076837186
                                8.45850549        0.3919573931
[INPUT] 1    0    [3    /1   ]  8.548569754       0.0049515112
                                2.60758625        0.5777664691
                                1.00608784        0.4846460366
[INPUT] 1    0    [3    /1   ]  0.5921156814      -0.12154686
                                0.2185279254      0.5715227604
                                0.0965042359      0.5498949471
[INPUT] 2    0    [3    /1   ]  6.411803475       0.2197679508
                                1.955804428       0.6555473627
                                0.754610151       0.286573259
[INPUT] C
[INPUT] 0    0    [3    /1   ]  71.616837         0.15432897
                                13.045096         0.53532814
                                3.5305122         0.44463454
[INPUT] 0    0    [3    /1   ]  2.9412494         -0.09996723
                                0.6834831         0.39951283
                                0.2222899         0.70011547
[INPUT] 1    0    [3    /1   ]  2.9412494         0.15591627
                                0.6834831         0.60768372
                                0.2222899         0.39195739

nuclear repulsion = 5038.06661901155
number of shells = 96
number of NR pGTOs = 528
number of NR cGTOs = 176
basis = sto-3g
ecp = {}
CPU time:         3.91


******** <class 'pyscf.x2c.sfx2c1e.sfX2C1eUKS'> ********
method = sfX2C1eUKS
initial guess = minao
damping factor = 0
level_shift factor = 0
DIIS = <class 'pyscf.scf.diis.CDIIS'>
diis_start_cycle = 1
diis_space = 8
SCF conv_tol = 0.0001
SCF conv_tol_grad = None
SCF max_cycles = 500
direct_scf = True
direct_scf_tol = 1e-13
chkfile to save SCF result = hs_bp86.chk
max_memory 4000 MB (current use 96 MB)
number electrons alpha = 144  beta = 126
XC library pyscf.dft.libxc version 6.1.0
    S. Lehtola, C. Steigemann, M. J.T. Oliveira, and M. A.L. Marques.,  SoftwareX 7, 1–5 (2018)
XC functionals = b88,p86
    A. D. Becke.,  Phys. Rev. A 38, 3098 (1988)
    J. P. Perdew.,  Phys. Rev. B 33, 8822 (1986)
radial grids: 
    Treutler-Ahlrichs [JCP 102, 346 (1995); DOI:10.1063/1.469408] (M4) radial grids
    
becke partition: Becke, JCP 88, 2547 (1988); DOI:10.1063/1.454033
pruning grids: <function nwchem_prune at 0x7fdd8f047320>
grids dens level: 3
symmetrized grids: False
atomic radii adjust function: <function treutler_atomic_radii_adjust at 0x7fdd8f0477a0>
small_rho_cutoff = 1e-07


******** <class 'pyscf.x2c.sfx2c1e.SpinFreeX2CHelper'> ********
approx = 1e
xuncontract = 1
Set gradient conv threshold to 0.01
Nelec from initial guess = (132.20889580295125, 132.20889580295125)
atom S rad-grids = 80, ang-grids = [ 50  50  50  50  50  50  50  50  50  50  50  50  50  50  50  50  50  50
  50  50  50  50  50  50  86  86  86  86  86  86  86  86  86  86  86  86
  86 350 350 350 350 350 350 350 350 350 434 434 434 434 434 434 434 434
 434 434 434 434 434 434 434 434 434 434 350 350 350 350 350 350 350 350
 350 350 350 350 350 350 350 350]
atom Fe rad-grids = 90, ang-grids = [ 50  50  50  50  50  50  50  50  50  50  50  50  50  50  50  50  50  50
  50  50  50  50  50  50  50  50  50  50  50  50  86  86  86  86  86  86
  86  86  86  86  86  86  86  86  86  86 350 350 350 350 350 350 350 350
 350 350 350 434 434 434 434 434 434 434 434 434 434 434 434 434 434 434
 434 434 434 434 434 434 350 350 350 350 350 350 350 350 350 350 350 350]
atom C rad-grids = 75, ang-grids = [ 50  50  50  50  50  50  50  50  50  50  50  50  50  50  50  50  50  50
  50  50  50  50  50  86  86  86  86  86  86  86  86  86  86 266 266 266
 266 266 266 266 302 302 302 302 302 302 302 302 302 302 302 302 302 302
 302 302 302 302 302 302 266 266 266 266 266 266 266 266 266 266 266 266
 266 266 266]
atom H rad-grids = 50, ang-grids = [ 50  50  50  50  50  50  50  50  50  50  50  50  50  50  86  86  86  86
 266 266 266 266 302 302 302 302 302 302 302 302 302 302 302 302 302 266
 266 266 266 266 266 266 266 266 266 266 266 266 266 266]
tot_boxes 9216, boxes in each direction [22 22 14]
Padding 0 grids
tot grids = 407096
    CPU time for setting up grids     19.28 sec, wall time      0.96 sec
nelec by numeric integration = [132.20898102 132.20898102]
    CPU time for vxc    113.95 sec, wall time      3.76 sec
E1 = -21538.107212362866  Ecoul = 8625.877011141176  Exc = -458.8807557317337
init E= -8333.04433794188
cond(S) = 31.32683645879401
    CPU time for initialize scf    197.13 sec, wall time      6.65 sec
  alpha nocc = 144  HOMO = -0.0636138217932461  LUMO = -0.0571756541595941
  beta  nocc = 126  HOMO = -0.314853907548452  LUMO = -0.312823605707848

WARN: system HOMO -0.0636138217932461 >= system LUMO -0.312823605707848

  alpha mo_energy =
[-2.53585866e+02 -2.53585829e+02 -2.53585664e+02 -2.53585559e+02
 -8.79880492e+01 -8.79878109e+01 -8.79874278e+01 -8.79870803e+01
 -8.78122863e+01 -8.78121935e+01 -8.78121509e+01 -8.78113434e+01
 -2.90899824e+01 -2.90897826e+01 -2.90897429e+01 -2.90894594e+01
 -2.50045036e+01 -2.50044604e+01 -2.50042975e+01 -2.50041759e+01
 -2.50037474e+01 -2.50036948e+01 -2.50036207e+01 -2.50035869e+01
 -2.50035523e+01 -2.50034348e+01 -2.50034225e+01 -2.50033254e+01
 -1.01565105e+01 -1.01563882e+01 -1.01557034e+01 -1.01556165e+01
 -8.14707728e+00 -8.14671250e+00 -8.14634996e+00 -8.14605010e+00
 -7.98027412e+00 -7.98016775e+00 -7.98001406e+00 -7.97935438e+00
 -6.09458001e+00 -6.09429416e+00 -6.09417074e+00 -6.09405433e+00
 -6.09395458e+00 -6.09384633e+00 -6.09337449e+00 -6.09316955e+00
 -6.09297890e+00 -6.09281118e+00 -6.09252351e+00 -6.09240223e+00
 -5.92852667e+00 -5.92844945e+00 -5.92831453e+00 -5.92763526e+00
 -5.92717633e+00 -5.92710999e+00 -5.92702166e+00 -5.92634842e+00
 -5.92447369e+00 -5.92441524e+00 -5.92432380e+00 -5.92365533e+00
 -2.94292108e+00 -2.94238399e+00 -2.94223168e+00 -2.94189164e+00
 -1.73975238e+00 -1.73406520e+00 -1.73372199e+00 -1.72945976e+00
 -1.72532578e+00 -1.72134974e+00 -1.72114046e+00 -1.72094205e+00
 -1.72041891e+00 -1.72004585e+00 -1.71992419e+00 -1.71855128e+00
 -1.19306005e+00 -1.17430764e+00 -1.17411643e+00 -1.17289682e+00
 -1.11213337e+00 -1.11152275e+00 -1.11017282e+00 -1.10983770e+00
 -9.77836315e-01 -9.77514715e-01 -9.73260374e-01 -9.73067254e-01
 -8.23287390e-01 -8.14924092e-01 -8.11404218e-01 -8.11225045e-01
 -7.99379339e-01 -7.94551592e-01 -7.85570626e-01 -7.85245928e-01
 -7.80311297e-01 -7.72241641e-01 -7.69797084e-01 -7.67239319e-01
 -7.65672404e-01 -7.65461059e-01 -7.63458615e-01 -7.62942061e-01
 -7.62761092e-01 -7.56509148e-01 -7.55921575e-01 -7.54677609e-01
 -7.32994366e-01 -7.31534725e-01 -7.30652938e-01 -7.30347142e-01
 -6.30371683e-01 -6.27922797e-01 -6.26187019e-01 -6.26023704e-01
 -6.18321217e-01 -6.18006575e-01 -6.16163006e-01 -6.13853117e-01
 -3.67651974e-01 -3.14853908e-01 -3.12823606e-01 -3.12090310e-01
 -3.11249650e-01 -2.84354571e-01 -2.77133708e-01 -2.76391686e-01
 -2.74000175e-01 -2.31071181e-01 -2.22887445e-01 -2.22619825e-01
 -2.18909380e-01 -2.13252802e-01 -1.56674782e-01 -1.36619928e-01
 -1.35341793e-01 -7.17784245e-02 -7.04911584e-02 -6.36138218e-02
 -5.71756542e-02 -3.22099244e-02 -2.89709473e-02 -2.72928819e-02
 -2.28874837e-02 -1.33711257e-02 -1.32454975e-02 -4.50400470e-03
  1.45527599e-02  3.32176832e-02  3.33242843e-02  5.64859338e-02
  4.19294055e-01  4.20609926e-01  4.25598298e-01  4.25650359e-01
  4.26198260e-01  4.27338478e-01  4.28617143e-01  4.31702260e-01
  4.31773428e-01  4.31965369e-01  4.32676880e-01  4.32890707e-01
  4.33687416e-01  4.41730979e-01  4.42083517e-01  4.42434499e-01
  4.55227663e-01  4.59031268e-01  4.59398438e-01  4.63123788e-01]
  beta  mo_energy =
[-2.53585866e+02 -2.53585829e+02 -2.53585664e+02 -2.53585559e+02
 -8.79880492e+01 -8.79878109e+01 -8.79874278e+01 -8.79870803e+01
 -8.78122863e+01 -8.78121935e+01 -8.78121509e+01 -8.78113434e+01
 -2.90899824e+01 -2.90897826e+01 -2.90897429e+01 -2.90894594e+01
 -2.50045036e+01 -2.50044604e+01 -2.50042975e+01 -2.50041759e+01
 -2.50037474e+01 -2.50036948e+01 -2.50036207e+01 -2.50035869e+01
 -2.50035523e+01 -2.50034348e+01 -2.50034225e+01 -2.50033254e+01
 -1.01565105e+01 -1.01563882e+01 -1.01557034e+01 -1.01556165e+01
 -8.14707728e+00 -8.14671250e+00 -8.14634996e+00 -8.14605010e+00
 -7.98027412e+00 -7.98016775e+00 -7.98001406e+00 -7.97935438e+00
 -6.09458001e+00 -6.09429416e+00 -6.09417074e+00 -6.09405433e+00
 -6.09395458e+00 -6.09384633e+00 -6.09337449e+00 -6.09316955e+00
 -6.09297890e+00 -6.09281118e+00 -6.09252351e+00 -6.09240223e+00
 -5.92852667e+00 -5.92844945e+00 -5.92831453e+00 -5.92763526e+00
 -5.92717633e+00 -5.92710999e+00 -5.92702166e+00 -5.92634842e+00
 -5.92447369e+00 -5.92441524e+00 -5.92432380e+00 -5.92365533e+00
 -2.94292108e+00 -2.94238399e+00 -2.94223168e+00 -2.94189164e+00
 -1.73975238e+00 -1.73406520e+00 -1.73372199e+00 -1.72945976e+00
 -1.72532578e+00 -1.72134974e+00 -1.72114046e+00 -1.72094205e+00
 -1.72041891e+00 -1.72004585e+00 -1.71992419e+00 -1.71855128e+00
 -1.19306005e+00 -1.17430764e+00 -1.17411643e+00 -1.17289682e+00
 -1.11213337e+00 -1.11152275e+00 -1.11017282e+00 -1.10983770e+00
 -9.77836315e-01 -9.77514715e-01 -9.73260374e-01 -9.73067254e-01
 -8.23287390e-01 -8.14924092e-01 -8.11404218e-01 -8.11225045e-01
 -7.99379339e-01 -7.94551592e-01 -7.85570626e-01 -7.85245928e-01
 -7.80311297e-01 -7.72241641e-01 -7.69797084e-01 -7.67239319e-01
 -7.65672404e-01 -7.65461059e-01 -7.63458615e-01 -7.62942061e-01
 -7.62761092e-01 -7.56509148e-01 -7.55921575e-01 -7.54677609e-01
 -7.32994366e-01 -7.31534725e-01 -7.30652938e-01 -7.30347142e-01
 -6.30371683e-01 -6.27922797e-01 -6.26187019e-01 -6.26023704e-01
 -6.18321217e-01 -6.18006575e-01 -6.16163006e-01 -6.13853117e-01
 -3.67651974e-01 -3.14853908e-01 -3.12823606e-01 -3.12090310e-01
 -3.11249650e-01 -2.84354571e-01 -2.77133708e-01 -2.76391686e-01
 -2.74000175e-01 -2.31071181e-01 -2.22887445e-01 -2.22619825e-01
 -2.18909380e-01 -2.13252802e-01 -1.56674782e-01 -1.36619928e-01
 -1.35341793e-01 -7.17784245e-02 -7.04911584e-02 -6.36138218e-02
 -5.71756542e-02 -3.22099244e-02 -2.89709473e-02 -2.72928819e-02
 -2.28874837e-02 -1.33711257e-02 -1.32454975e-02 -4.50400470e-03
  1.45527599e-02  3.32176832e-02  3.33242843e-02  5.64859338e-02
  4.19294055e-01  4.20609926e-01  4.25598298e-01  4.25650359e-01
  4.26198260e-01  4.27338478e-01  4.28617143e-01  4.31702260e-01
  4.31773428e-01  4.31965369e-01  4.32676880e-01  4.32890707e-01
  4.33687416e-01  4.41730979e-01  4.42083517e-01  4.42434499e-01
  4.55227663e-01  4.59031268e-01  4.59398438e-01  4.63123788e-01]
multiplicity <S^2> = 90  2S+1 = 19
nelec by numeric integration = [144.0002074  126.00006389]
    CPU time for vxc    111.76 sec, wall time      3.73 sec
E1 = -21199.10732060268  Ecoul = 8307.136984611345  Exc = -444.5181294983654
cycle= 1 E= -8298.42184647815  delta_E= 34.6  |g|= 5.25  |ddm|= 13.9
    CPU time for cycle= 1    114.12 sec, wall time      3.79 sec
diis-norm(errvec)=7.41755
diis-c [-55.02007899   1.        ]
  alpha nocc = 144  HOMO = 0.205772091503365  LUMO = 0.209547998634515
  beta  nocc = 126  HOMO = -0.280490621076367  LUMO = -0.247467176246635

WARN: system HOMO 0.227943538326377 >= system LUMO -0.247467176246635

  alpha mo_energy =
[-2.60024605e+02 -2.60023149e+02 -2.60016279e+02 -2.59922250e+02
 -8.71154504e+01 -8.70776877e+01 -8.70758474e+01 -8.70674357e+01
 -8.64757171e+01 -8.64674415e+01 -8.64478115e+01 -8.62139550e+01
 -3.54871910e+01 -3.54857909e+01 -3.54790435e+01 -3.53873598e+01
 -3.14207766e+01 -3.14193799e+01 -3.14171021e+01 -3.14165241e+01
 -3.14157655e+01 -3.14150554e+01 -3.14125848e+01 -3.14089607e+01
 -3.14083203e+01 -3.13205951e+01 -3.13174080e+01 -3.13158060e+01
 -8.71273448e+00 -8.68099290e+00 -8.66871936e+00 -8.37352628e+00
 -7.64872081e+00 -7.64751494e+00 -7.64137332e+00 -7.55855012e+00
 -7.45845831e+00 -7.42137463e+00 -7.41963035e+00 -7.41228991e+00
 -6.77798267e+00 -6.76968531e+00 -6.75150136e+00 -6.53518767e+00
 -6.37806042e+00 -6.37655409e+00 -6.36954207e+00 -6.36589163e+00
 -6.36497736e+00 -6.36083433e+00 -6.35909622e+00 -6.35817626e+00
 -6.35308792e+00 -6.28048906e+00 -6.27451103e+00 -6.26699536e+00
 -5.38785409e+00 -5.38646895e+00 -5.38589324e+00 -5.35067001e+00
 -5.34931980e+00 -5.34877567e+00 -5.34844934e+00 -5.34700068e+00
 -5.34690827e+00 -5.34177218e+00 -5.33997769e+00 -5.33946479e+00
 -4.72317267e+00 -4.71636937e+00 -4.71482782e+00 -4.70798267e+00
 -4.70720024e+00 -4.69892100e+00 -4.69681157e+00 -4.68960048e+00
 -4.68095031e+00 -4.48140661e+00 -4.46801971e+00 -4.46555810e+00
 -3.94987064e+00 -3.94843777e+00 -3.94494665e+00 -3.94376049e+00
 -3.94159104e+00 -3.94024780e+00 -3.93869087e+00 -3.93671205e+00
 -3.93215372e+00 -3.92174516e+00 -3.92166983e+00 -3.92048636e+00
 -3.92045073e+00 -3.91395326e+00 -3.91391478e+00 -3.85471935e+00
 -3.85106274e+00 -3.84434503e+00 -3.82896357e+00 -3.82875769e+00
 -2.35328719e+00 -1.90473995e+00 -1.89059840e+00 -1.75834519e+00
 -1.33562954e+00 -1.26168566e+00 -1.24830183e+00 -1.23771082e+00
 -1.20712050e+00 -1.08375247e+00 -1.04421259e+00 -1.02698436e+00
 -1.00067540e+00 -9.79043113e-01 -9.71530015e-01 -9.29729417e-01
 -8.64070027e-01 -8.33399878e-01 -8.26149881e-01 -7.56718510e-01
 -3.88841416e-01 -3.66510333e-01 -3.64042581e-01 -3.35331312e-01
 -3.30654912e-01 -2.99887407e-01 -2.61537090e-01 -2.58492111e-01
 -2.50265332e-01 -2.34988404e-01 -2.21476580e-01 -2.13990543e-01
 -1.77753828e-01 -1.72734771e-01 -1.61718830e-01 -3.20499193e-02
 -1.04668005e-02 -4.60437381e-03 -2.11001305e-03  1.49844560e-01
  1.80804960e-01  1.85681605e-01  2.02334836e-01  2.05772092e-01
  2.09547999e-01  2.12980691e-01  2.28519159e-01  2.48611707e-01
  2.56865794e-01  2.77682014e-01  2.91160849e-01  2.92997889e-01
  2.99754729e-01  3.05273535e-01  3.16365784e-01  3.50478857e-01
  3.58285711e-01  4.39760810e-01  4.53695028e-01  4.79366372e-01
  7.77831468e-01  8.01816440e-01  8.06540111e-01  9.51760017e-01
  9.65786804e-01  9.73534486e-01  9.91505405e-01  9.96620784e-01
  9.99604066e-01  1.00320081e+00  1.00864977e+00  1.01958166e+00
  1.04366309e+00  1.15108644e+00  1.18970186e+00  1.20042989e+00]
  beta  mo_energy =
[-2.60020454e+02 -2.60019006e+02 -2.60012140e+02 -2.59918342e+02
 -8.71119655e+01 -8.70742296e+01 -8.70723862e+01 -8.70640848e+01
 -8.64709191e+01 -8.64626334e+01 -8.64431715e+01 -8.62107826e+01
 -3.54828139e+01 -3.54814211e+01 -3.54746813e+01 -3.53832414e+01
 -3.14171013e+01 -3.14157199e+01 -3.14112214e+01 -3.14106328e+01
 -3.14098705e+01 -3.14091824e+01 -3.14089182e+01 -3.14030905e+01
 -3.14024575e+01 -3.13171386e+01 -3.13116766e+01 -3.13104595e+01
 -8.69206385e+00 -8.66030897e+00 -8.64804873e+00 -8.35930375e+00
 -7.63417028e+00 -7.63300589e+00 -7.62687757e+00 -7.54490513e+00
 -7.45394246e+00 -7.41689054e+00 -7.41513996e+00 -7.40793874e+00
 -6.77185806e+00 -6.76354962e+00 -6.74558680e+00 -6.53113075e+00
 -6.36605982e+00 -6.36452984e+00 -6.35765553e+00 -6.34995312e+00
 -6.34902939e+00 -6.34469660e+00 -6.34301361e+00 -6.34227635e+00
 -6.33700675e+00 -6.26955904e+00 -6.25900031e+00 -6.25225846e+00
 -5.38408991e+00 -5.38063013e+00 -5.37995818e+00 -5.34691363e+00
 -5.34516647e+00 -5.34333676e+00 -5.34261279e+00 -5.34130693e+00
 -5.34100911e+00 -5.33812976e+00 -5.33412431e+00 -5.33397022e+00
 -4.71625332e+00 -4.70791728e+00 -4.70582900e+00 -4.70283398e+00
 -4.69741358e+00 -4.69454244e+00 -4.69008297e+00 -4.67940994e+00
 -4.67672890e+00 -4.47615447e+00 -4.46252410e+00 -4.46160838e+00
 -3.93818629e+00 -3.93677766e+00 -3.93288065e+00 -3.93170152e+00
 -3.92999804e+00 -3.92799778e+00 -3.92645196e+00 -3.92474082e+00
 -3.92000781e+00 -3.90672570e+00 -3.90664897e+00 -3.90549030e+00
 -3.90537841e+00 -3.89904528e+00 -3.89893581e+00 -3.84380679e+00
 -3.83956026e+00 -3.83348220e+00 -3.81496527e+00 -3.81475928e+00
 -2.31188330e+00 -1.85814721e+00 -1.84484723e+00 -1.70701182e+00
 -1.30221556e+00 -1.20861704e+00 -1.20112884e+00 -1.18144316e+00
 -1.14428016e+00 -1.03495928e+00 -9.63510785e-01 -9.53603723e-01
 -9.23457329e-01 -9.09883083e-01 -9.03135830e-01 -8.71905640e-01
 -8.06144108e-01 -7.64516513e-01 -7.57404431e-01 -6.86881121e-01
 -3.65976868e-01 -3.47275382e-01 -3.42830191e-01 -3.07052833e-01
 -3.01888959e-01 -2.80490621e-01 -2.47467176e-01 -2.31434063e-01
 -2.26865963e-01 -2.14632500e-01 -2.02568268e-01 -1.97669675e-01
 -1.51945418e-01 -1.39135724e-01 -1.28359595e-01 -8.00678881e-04
  1.48840403e-02  2.64867120e-02  2.90938037e-02  1.73919108e-01
  2.03674685e-01  2.13746203e-01  2.25322282e-01  2.27943538e-01
  2.36471272e-01  2.41880393e-01  2.64630268e-01  2.83544582e-01
  2.91748607e-01  3.00505919e-01  3.13920472e-01  3.18345976e-01
  3.23716698e-01  3.28189736e-01  3.39014042e-01  3.70217431e-01
  3.84687293e-01  4.58070745e-01  4.70031333e-01  4.99875251e-01
  8.55902199e-01  8.80015293e-01  8.82353433e-01  1.00262514e+00
  1.01305611e+00  1.03029311e+00  1.03064775e+00  1.03387512e+00
  1.05248959e+00  1.06264020e+00  1.07433148e+00  1.08519994e+00
  1.08683794e+00  1.19124616e+00  1.22388832e+00  1.25537063e+00]
multiplicity <S^2> = 90.00059  2S+1 = 19.000062
nelec by numeric integration = [144.00015831 126.00012011]
    CPU time for vxc    112.08 sec, wall time      3.72 sec
E1 = -22521.190379858657  Ecoul = 9765.575253859062  Exc = -470.69746072209284
cycle= 2 E= -8188.24596771014  delta_E=  110  |g|= 4.48  |ddm|= 21.6
    CPU time for cycle= 2    115.20 sec, wall time      3.81 sec
diis-norm(errvec)=6.33918
diis-c [-18.34730407   0.4355621    0.5644379 ]
  alpha nocc = 144  HOMO = 1.92656934716837  LUMO = 1.9394981610022
  beta  nocc = 126  HOMO = 1.18563465421714  LUMO = 1.20264907355668

WARN: system HOMO 1.97132018593293 >= system LUMO 1.20264907355668

  alpha mo_energy =
[-2.51705172e+02 -2.51659502e+02 -2.51652246e+02 -2.51624254e+02
 -8.77537089e+01 -8.76451448e+01 -8.76428772e+01 -8.75129539e+01
 -8.49063305e+01 -8.49044976e+01 -8.48886909e+01 -8.46682112e+01
 -2.72828428e+01 -2.72362400e+01 -2.72289401e+01 -2.72008356e+01
 -2.31942780e+01 -2.31933673e+01 -2.31927091e+01 -2.31475767e+01
 -2.31467670e+01 -2.31465133e+01 -2.31405013e+01 -2.31394993e+01
 -2.31391259e+01 -2.31124141e+01 -2.31114857e+01 -2.31111251e+01
 -1.08628715e+01 -1.07570331e+01 -1.06473024e+01 -1.04592325e+01
 -7.83103594e+00 -7.72812223e+00 -7.72578463e+00 -7.60106931e+00
 -5.78116213e+00 -5.77252057e+00 -5.76451576e+00 -5.67971023e+00
 -5.67790088e+00 -5.66787707e+00 -5.66654231e+00 -5.66067415e+00
 -5.65885055e+00 -5.55313446e+00 -5.54160374e+00 -5.53482652e+00
 -5.21223984e+00 -5.20867503e+00 -5.19776915e+00 -4.99573523e+00
 -3.14799383e+00 -3.14497048e+00 -3.14453734e+00 -3.14135965e+00
 -3.13828224e+00 -3.13526062e+00 -3.13346315e+00 -3.12979532e+00
 -3.12366125e+00 -2.93087451e+00 -2.92834002e+00 -2.92407676e+00
 -1.33859263e+00 -1.25603764e+00 -1.16382851e+00 -1.02171116e+00
 -9.81608459e-01 -9.45063038e-01 -9.36203877e-01 -9.30628884e-01
 -9.07696493e-01 -8.86462414e-01 -8.77744580e-01 -8.67235620e-01
 -8.59347251e-01 -8.47593666e-01 -8.22141980e-01 -7.66731519e-01
 -7.58776049e-01 -6.97619301e-01 -6.41989484e-01 -6.30779133e-01
 -5.90671877e-01 -5.19981456e-01 -4.83056216e-01 -3.73194693e-01
 -3.47854172e-01 -2.67832629e-01 -1.81544240e-01 -1.73365267e-01
 -1.09814283e-01 -1.06497776e-01 -9.57366419e-02 -7.24199147e-02
 -4.64016368e-02 -4.43571687e-02 -3.19749001e-02 -2.28484853e-02
  6.74190116e-03  1.87563823e-02  3.47894740e-02  4.55614332e-02
  6.13784692e-02  1.11313027e-01  1.19574579e-01  1.23289773e-01
  1.45489979e-01  1.69472774e-01  2.10646232e-01  2.45645122e-01
  3.15985815e-01  3.24528632e-01  3.49076047e-01  3.66100738e-01
  3.72405278e-01  3.73604279e-01  3.81948579e-01  3.97356322e-01
  4.02030997e-01  4.05465911e-01  4.10510276e-01  4.35874359e-01
  1.10781484e+00  1.12183852e+00  1.13558584e+00  1.28592154e+00
  1.35506098e+00  1.40276007e+00  1.43706006e+00  1.47770112e+00
  1.64461171e+00  1.66607841e+00  1.68759326e+00  1.71507553e+00
  1.72846424e+00  1.79147514e+00  1.80468185e+00  1.81336275e+00
  1.83659149e+00  1.84488421e+00  1.85942422e+00  1.92656935e+00
  1.93949816e+00  1.95314104e+00  1.98870328e+00  2.02054370e+00
  2.02589214e+00  2.03450283e+00  2.07168646e+00  2.12650597e+00
  2.47681981e+00  2.48651759e+00  2.49876539e+00  2.50816688e+00
  2.52851716e+00  2.53214262e+00  2.54056832e+00  2.54453213e+00
  2.55074770e+00  2.56484963e+00  2.56701411e+00  2.57362988e+00
  2.57932835e+00  2.58236491e+00  2.58739673e+00  2.58939271e+00
  2.59706915e+00  2.59824543e+00  2.61488705e+00  2.62301433e+00
  2.69560140e+00  2.74093637e+00  2.75849173e+00  2.76237416e+00]
  beta  mo_energy =
[-2.51703403e+02 -2.51657638e+02 -2.51650382e+02 -2.51622382e+02
 -8.77481126e+01 -8.76387153e+01 -8.76360796e+01 -8.75059740e+01
 -8.48992506e+01 -8.48978132e+01 -8.48821222e+01 -8.46631954e+01
 -2.72809620e+01 -2.72342553e+01 -2.72269579e+01 -2.71988435e+01
 -2.31924345e+01 -2.31907922e+01 -2.31905433e+01 -2.31456774e+01
 -2.31441375e+01 -2.31441076e+01 -2.31385780e+01 -2.31369114e+01
 -2.31367032e+01 -2.31104976e+01 -2.31088970e+01 -2.31086668e+01
 -1.08506937e+01 -1.07395813e+01 -1.06298585e+01 -1.04400247e+01
 -7.82391537e+00 -7.71928702e+00 -7.71746214e+00 -7.59192652e+00
 -5.77267391e+00 -5.76583181e+00 -5.75521123e+00 -5.66883894e+00
 -5.66751122e+00 -5.65876109e+00 -5.65841323e+00 -5.65044985e+00
 -5.64901223e+00 -5.54161976e+00 -5.53216002e+00 -5.52455095e+00
 -5.20328119e+00 -5.19917849e+00 -5.18896243e+00 -4.98914625e+00
 -3.13752237e+00 -3.13514830e+00 -3.13385723e+00 -3.13129737e+00
 -3.12763195e+00 -3.12388682e+00 -3.12304146e+00 -3.12059000e+00
 -3.11323761e+00 -2.92338523e+00 -2.92143580e+00 -2.91586826e+00
 -1.26305597e+00 -1.15227292e+00 -1.05789338e+00 -9.30329725e-01
 -9.10922978e-01 -8.97753083e-01 -8.80141756e-01 -8.71335851e-01
 -8.60591677e-01 -8.46844006e-01 -8.41148542e-01 -8.18167415e-01
 -7.61185002e-01 -7.39874235e-01 -7.37839998e-01 -6.62578709e-01
 -6.27747882e-01 -6.09005755e-01 -5.42439704e-01 -5.03982756e-01
 -4.93078186e-01 -4.50133140e-01 -4.13431469e-01 -2.91473403e-01
 -2.63508978e-01 -1.53290039e-01 -9.99867708e-02 -6.34247488e-02
 -2.90076706e-02 -2.22344173e-02 -6.12217156e-03 -3.42719796e-04
  4.65934987e-02  6.20905917e-02  8.15178863e-02  8.77808614e-02
  9.55731220e-02  9.87772954e-02  1.21170624e-01  1.54228715e-01
  1.76091661e-01  1.95357246e-01  1.98674264e-01  2.01280489e-01
  2.71428463e-01  2.85110759e-01  3.15151498e-01  3.23551366e-01
  3.32166477e-01  3.57989699e-01  3.74297438e-01  3.80517134e-01
  3.81631266e-01  3.82922302e-01  3.89814595e-01  4.07069811e-01
  4.10790602e-01  4.15113247e-01  4.18500132e-01  4.48297633e-01
  1.16973783e+00  1.18563465e+00  1.20264907e+00  1.32941061e+00
  1.39748558e+00  1.44676526e+00  1.48117098e+00  1.52409654e+00
  1.67733060e+00  1.69813855e+00  1.72038590e+00  1.74833989e+00
  1.76181807e+00  1.83050755e+00  1.84427175e+00  1.85277256e+00
  1.87374918e+00  1.88245378e+00  1.89543909e+00  1.97132019e+00
  1.98388818e+00  1.99262879e+00  2.01451938e+00  2.05476508e+00
  2.05649741e+00  2.06836091e+00  2.11214608e+00  2.14796009e+00
  2.48865973e+00  2.49589080e+00  2.50855941e+00  2.51824684e+00
  2.53599558e+00  2.53972732e+00  2.54831796e+00  2.55153328e+00
  2.55763858e+00  2.57151454e+00  2.57386898e+00  2.58001096e+00
  2.58554114e+00  2.58926077e+00  2.59421532e+00  2.59585588e+00
  2.60376963e+00  2.60532120e+00  2.62230211e+00  2.63047905e+00
  2.71454875e+00  2.76135828e+00  2.77948068e+00  2.78474708e+00]
multiplicity <S^2> = 90.0006  2S+1 = 19.000063
nelec by numeric integration = [144.00018032 126.00009798]
    CPU time for vxc    114.87 sec, wall time      3.82 sec
E1 = -20743.2294260062  Ecoul = 7963.086576767886  Exc = -448.1616119666027
cycle= 3 E= -8190.23784219337  delta_E= -1.99  |g|= 6.13  |ddm|= 28.3
    CPU time for cycle= 3    118.55 sec, wall time      3.95 sec
diis-norm(errvec)=8.67426
diis-c [-17.16579036   0.31559173   0.53883064   0.14557762]
  alpha nocc = 144  HOMO = 1.36043564007377  LUMO = 1.43604586588145
  beta  nocc = 126  HOMO = 0.7728121385119  LUMO = 0.780305360668237

WARN: system HOMO 1.40057852570425 >= system LUMO 0.780305360668237

  alpha mo_energy =
[-2.52466130e+02 -2.52440553e+02 -2.52434655e+02 -2.52430303e+02
 -8.76612520e+01 -8.75528848e+01 -8.75412687e+01 -8.74341264e+01
 -8.56572747e+01 -8.55684229e+01 -8.55663179e+01 -8.55199359e+01
 -2.80365564e+01 -2.80097798e+01 -2.80042736e+01 -2.79987782e+01
 -2.39501374e+01 -2.39488387e+01 -2.39484723e+01 -2.39233014e+01
 -2.39221386e+01 -2.39220228e+01 -2.39178220e+01 -2.39165628e+01
 -2.39164889e+01 -2.39122999e+01 -2.39113652e+01 -2.39110462e+01
 -1.03323542e+01 -1.02055744e+01 -1.01232902e+01 -9.94376528e+00
 -7.75428591e+00 -7.65073791e+00 -7.64354537e+00 -7.53921581e+00
 -5.90673568e+00 -5.83026607e+00 -5.82853863e+00 -5.78210496e+00
 -5.70485679e+00 -5.69821895e+00 -5.69287688e+00 -5.60266027e+00
 -5.59524418e+00 -5.59409691e+00 -5.58909620e+00 -5.58612142e+00
 -5.58161351e+00 -5.49099966e+00 -5.48234594e+00 -5.47831895e+00
 -3.84809302e+00 -3.84547151e+00 -3.84484930e+00 -3.77310782e+00
 -3.77105717e+00 -3.76896035e+00 -3.76803094e+00 -3.76740909e+00
 -3.76616330e+00 -3.72442601e+00 -3.72047314e+00 -3.71955629e+00
 -1.59564266e+00 -1.56502542e+00 -1.56019151e+00 -1.55098933e+00
 -9.99451069e-01 -9.09998717e-01 -8.44531845e-01 -7.37522806e-01
 -7.15922626e-01 -6.56632170e-01 -6.44874714e-01 -6.26669969e-01
 -6.15805186e-01 -5.60178588e-01 -5.40699246e-01 -5.10795175e-01
 -4.80501250e-01 -4.63195056e-01 -4.33762034e-01 -3.66811720e-01
 -3.59706530e-01 -3.55707624e-01 -3.45453802e-01 -3.44434927e-01
 -3.44183961e-01 -3.27644805e-01 -3.24645819e-01 -3.21975166e-01
 -3.14951305e-01 -3.14381520e-01 -3.13440843e-01 -3.10435863e-01
 -3.09307990e-01 -3.02680445e-01 -3.00350211e-01 -2.20715203e-01
 -1.36999015e-01 -6.30930557e-02 -5.37758389e-02 -4.88042582e-02
 -2.18614893e-03  2.30802049e-02  2.64290833e-02  3.48758845e-02
  6.11725569e-02  8.27100299e-02  9.92062425e-02  1.05020963e-01
  1.46528609e-01  1.46663750e-01  1.52824057e-01  1.99035428e-01
  2.03614980e-01  2.27368822e-01  2.78908081e-01  2.93652626e-01
  2.98435946e-01  3.68513095e-01  4.07880656e-01  4.73459018e-01
  6.64862641e-01  7.05900706e-01  7.12071250e-01  7.65821601e-01
  1.01279992e+00  1.04689580e+00  1.06037905e+00  1.08811382e+00
  1.14018987e+00  1.16122372e+00  1.18733473e+00  1.20018634e+00
  1.20797647e+00  1.27587122e+00  1.29303025e+00  1.29984212e+00
  1.31553548e+00  1.33593846e+00  1.34138972e+00  1.36043564e+00
  1.43604587e+00  1.45865626e+00  1.47530754e+00  1.48172022e+00
  1.48596315e+00  1.49190511e+00  1.52176892e+00  1.55368529e+00
  1.80456814e+00  1.81132994e+00  1.81255633e+00  1.82236996e+00
  1.85021831e+00  1.85173404e+00  1.85577612e+00  1.85642148e+00
  1.85791671e+00  1.87081764e+00  1.87462148e+00  1.87493703e+00
  1.87651855e+00  1.87891774e+00  1.88523221e+00  1.89001006e+00
  1.89400127e+00  1.90386974e+00  1.90910621e+00  1.91462243e+00
  1.98642975e+00  2.07166462e+00  2.08022188e+00  2.08276787e+00]
  beta  mo_energy =
[-2.52464267e+02 -2.52438672e+02 -2.52432728e+02 -2.52428477e+02
 -8.76561266e+01 -8.75471111e+01 -8.75351615e+01 -8.74278439e+01
 -8.56486081e+01 -8.55611969e+01 -8.55588691e+01 -8.55140329e+01
 -2.80345813e+01 -2.80077939e+01 -2.80022372e+01 -2.79968560e+01
 -2.39482542e+01 -2.39462614e+01 -2.39459975e+01 -2.39214305e+01
 -2.39196152e+01 -2.39194554e+01 -2.39159305e+01 -2.39139280e+01
 -2.39138679e+01 -2.39104849e+01 -2.39089584e+01 -2.39085451e+01
 -1.03221153e+01 -1.01909325e+01 -1.01086547e+01 -9.92744142e+00
 -7.74767081e+00 -7.64318887e+00 -7.63553152e+00 -7.53090578e+00
 -5.89492309e+00 -5.82055488e+00 -5.81853948e+00 -5.77411424e+00
 -5.69721396e+00 -5.69201921e+00 -5.68442395e+00 -5.59361876e+00
 -5.58664515e+00 -5.58577008e+00 -5.58020441e+00 -5.57775961e+00
 -5.57236431e+00 -5.48094204e+00 -5.47364210e+00 -5.46901937e+00
 -3.83412345e+00 -3.83210529e+00 -3.83181108e+00 -3.76067489e+00
 -3.75833396e+00 -3.75796062e+00 -3.75742431e+00 -3.75620284e+00
 -3.75513640e+00 -3.71429940e+00 -3.71217533e+00 -3.71108527e+00
 -1.58921562e+00 -1.55851313e+00 -1.55354067e+00 -1.54468566e+00
 -9.31098331e-01 -8.15995236e-01 -7.51205902e-01 -6.83590200e-01
 -6.10003975e-01 -5.86196641e-01 -5.58249290e-01 -5.47570780e-01
 -5.47005289e-01 -4.57863582e-01 -4.30919019e-01 -4.28367037e-01
 -3.80057350e-01 -3.79913213e-01 -3.52610118e-01 -3.43545123e-01
 -3.37023612e-01 -3.36764566e-01 -3.20763010e-01 -3.16147562e-01
 -3.07750121e-01 -3.06954439e-01 -3.06833488e-01 -3.02773592e-01
 -3.02055671e-01 -2.95531105e-01 -2.93007894e-01 -2.82549865e-01
 -2.51083909e-01 -2.32957865e-01 -2.19675004e-01 -1.38766277e-01
 -7.49907012e-02  7.42797163e-03  1.25125144e-02  2.00643275e-02
  6.95650925e-02  9.43136981e-02  1.00048879e-01  1.14739992e-01
  1.32126889e-01  1.63166178e-01  1.74658394e-01  1.93164593e-01
  2.15829758e-01  2.35136197e-01  2.56173690e-01  2.83084091e-01
  2.93657191e-01  3.32058002e-01  4.02196452e-01  4.06288241e-01
  4.07864249e-01  4.90572877e-01  5.40522849e-01  6.03614741e-01
  7.55369940e-01  7.72812139e-01  7.80305361e-01  8.30140572e-01
  1.06315273e+00  1.09742522e+00  1.11293195e+00  1.14477502e+00
  1.19203730e+00  1.20814043e+00  1.23617901e+00  1.24806984e+00
  1.25514188e+00  1.32609134e+00  1.33940110e+00  1.35390417e+00
  1.36020180e+00  1.38598632e+00  1.39142288e+00  1.40057853e+00
  1.48351482e+00  1.50236519e+00  1.52187206e+00  1.53116692e+00
  1.53646524e+00  1.54101244e+00  1.57447931e+00  1.60545223e+00
  1.81558436e+00  1.82207242e+00  1.82510804e+00  1.83480760e+00
  1.85696552e+00  1.85934749e+00  1.86271357e+00  1.86456526e+00
  1.86528911e+00  1.87681097e+00  1.88068811e+00  1.88220233e+00
  1.88331518e+00  1.88600250e+00  1.89331955e+00  1.89773720e+00
  1.90179133e+00  1.91325188e+00  1.91829120e+00  1.92356044e+00
  2.00777610e+00  2.09745596e+00  2.10613119e+00  2.10841035e+00]
multiplicity <S^2> = 90.000301  2S+1 = 19.000032
nelec by numeric integration = [144.00015386 126.00010229]
    CPU time for vxc    112.79 sec, wall time      3.68 sec
E1 = -20768.400940804604  Ecoul = 7980.7906551206925  Exc = -448.6314732502756
cycle= 4 E= -8198.17513992264  delta_E= -7.94  |g|= 5.49  |ddm|= 4.88
    CPU time for cycle= 4    116.15 sec, wall time      3.79 sec
diis-norm(errvec)=7.76198
diis-c [-15.82227105   0.26141377   0.52173548  -0.1129554    0.32980615]
  alpha nocc = 144  HOMO = 1.15476470451451  LUMO = 1.2001885200015
  beta  nocc = 126  HOMO = 0.672076768745453  LUMO = 0.69284320496345

WARN: system HOMO 1.21215708238248 >= system LUMO 0.69284320496345

  alpha mo_energy =
[-2.52900376e+02 -2.52871465e+02 -2.52854933e+02 -2.52804683e+02
 -8.76376489e+01 -8.75132412e+01 -8.75072502e+01 -8.73727718e+01
 -8.59882590e+01 -8.58961087e+01 -8.57566369e+01 -8.57396782e+01
 -2.84676986e+01 -2.84384938e+01 -2.84213795e+01 -2.83718098e+01
 -2.43813520e+01 -2.43807196e+01 -2.43803752e+01 -2.43520221e+01
 -2.43515112e+01 -2.43514353e+01 -2.43351462e+01 -2.43344626e+01
 -2.43341878e+01 -2.42855049e+01 -2.42847897e+01 -2.42846972e+01
 -1.00848225e+01 -9.94883025e+00 -9.83588401e+00 -9.65204133e+00
 -7.73929132e+00 -7.62463049e+00 -7.61425815e+00 -7.48695176e+00
 -6.22528958e+00 -6.14149395e+00 -6.01202519e+00 -5.99875316e+00
 -5.68973744e+00 -5.68426060e+00 -5.68077278e+00 -5.57601892e+00
 -5.56838232e+00 -5.56591863e+00 -5.56564811e+00 -5.55871645e+00
 -5.55554012e+00 -5.43830051e+00 -5.43108032e+00 -5.42865401e+00
 -4.16861932e+00 -4.16490464e+00 -4.16425945e+00 -4.08507116e+00
 -4.08154015e+00 -4.08047819e+00 -3.95601785e+00 -3.95293786e+00
 -3.95273320e+00 -3.94292345e+00 -3.93811372e+00 -3.93752186e+00
 -1.97853281e+00 -1.94794699e+00 -1.92887000e+00 -1.88039270e+00
 -8.60917180e-01 -7.69892209e-01 -7.36197888e-01 -7.27289151e-01
 -7.26331133e-01 -7.05225411e-01 -6.97894824e-01 -6.96757266e-01
 -6.90500526e-01 -6.85075280e-01 -6.77491763e-01 -6.76462419e-01
 -6.65375441e-01 -6.40857208e-01 -6.30357276e-01 -6.29407265e-01
 -5.79832285e-01 -5.59117936e-01 -5.19550370e-01 -5.18206765e-01
 -4.96989522e-01 -4.31812911e-01 -4.07397369e-01 -4.03688637e-01
 -3.70087562e-01 -3.19514780e-01 -2.97368042e-01 -2.88849347e-01
 -2.33621077e-01 -2.02060373e-01 -1.77568419e-01 -1.50007389e-01
 -1.22231571e-01 -7.37051559e-02 -6.79663239e-02 -4.50739901e-02
  1.38929792e-02  2.97694146e-02  3.84703667e-02  5.15820708e-02
  1.18803300e-01  1.36091044e-01  1.36366986e-01  1.66688927e-01
  2.28999318e-01  2.54871056e-01  2.91135417e-01  3.06915116e-01
  3.21812858e-01  3.41998673e-01  3.98784951e-01  4.11894278e-01
  4.50450928e-01  4.56437365e-01  4.70592979e-01  5.13724798e-01
  5.64330598e-01  5.83632166e-01  5.91801753e-01  6.30556761e-01
  7.92777746e-01  8.16407357e-01  8.55697101e-01  8.90877675e-01
  9.03405406e-01  9.23037414e-01  9.48458713e-01  9.81916387e-01
  9.89209648e-01  1.00514071e+00  1.03116278e+00  1.07148921e+00
  1.07940688e+00  1.09270421e+00  1.11434522e+00  1.15476470e+00
  1.20018852e+00  1.21045073e+00  1.23106946e+00  1.24161382e+00
  1.27140814e+00  1.28005439e+00  1.31713138e+00  1.33886188e+00
  1.44658957e+00  1.44975795e+00  1.45190766e+00  1.46655330e+00
  1.48094351e+00  1.48259482e+00  1.48557695e+00  1.49533381e+00
  1.49813368e+00  1.50435958e+00  1.50935861e+00  1.51603563e+00
  1.52278095e+00  1.54126116e+00  1.54299740e+00  1.54596858e+00
  1.54843165e+00  1.55727722e+00  1.58921740e+00  1.58998769e+00
  1.66331097e+00  1.76354159e+00  1.77201061e+00  1.78520409e+00]
  beta  mo_energy =
[-2.52898958e+02 -2.52869979e+02 -2.52853500e+02 -2.52803196e+02
 -8.76327360e+01 -8.75074430e+01 -8.75017739e+01 -8.73667974e+01
 -8.59788956e+01 -8.58873385e+01 -8.57485367e+01 -8.57317307e+01
 -2.84662032e+01 -2.84369197e+01 -2.84198650e+01 -2.83702309e+01
 -2.43798118e+01 -2.43788122e+01 -2.43786877e+01 -2.43504318e+01
 -2.43495800e+01 -2.43495553e+01 -2.43335723e+01 -2.43327136e+01
 -2.43323258e+01 -2.42839297e+01 -2.42828566e+01 -2.42827916e+01
 -1.00755226e+01 -9.93554124e+00 -9.82260094e+00 -9.63711255e+00
 -7.73290056e+00 -7.61698202e+00 -7.60705915e+00 -7.47901509e+00
 -6.21261373e+00 -6.12971105e+00 -6.00128965e+00 -5.98786383e+00
 -5.68255916e+00 -5.67831332e+00 -5.67261545e+00 -5.56724719e+00
 -5.56040216e+00 -5.55751395e+00 -5.55674787e+00 -5.55161638e+00
 -5.54703598e+00 -5.42892900e+00 -5.42274976e+00 -5.41972431e+00
 -4.15358315e+00 -4.15113489e+00 -4.14964882e+00 -4.07035632e+00
 -4.06855233e+00 -4.06713173e+00 -3.94307337e+00 -3.94043985e+00
 -3.93919519e+00 -3.92905342e+00 -3.92628137e+00 -3.92588126e+00
 -1.97355897e+00 -1.94266192e+00 -1.92379486e+00 -1.87509810e+00
 -7.99362722e-01 -7.30772600e-01 -7.21561740e-01 -7.20793161e-01
 -7.00092571e-01 -6.92138123e-01 -6.91033648e-01 -6.84947469e-01
 -6.83944911e-01 -6.72060569e-01 -6.70976844e-01 -6.35368214e-01
 -6.24387805e-01 -6.23456222e-01 -6.11751834e-01 -6.07933911e-01
 -5.10791319e-01 -4.74361637e-01 -4.45135255e-01 -4.37139079e-01
 -4.20547533e-01 -3.32183767e-01 -3.13887825e-01 -3.13258186e-01
 -3.01502935e-01 -2.21488689e-01 -2.17079272e-01 -1.87681495e-01
 -1.60426409e-01 -9.00738592e-02 -7.46940945e-02 -5.91736810e-02
 -4.14760856e-02 -5.42157219e-03 -5.10109891e-03  2.02776107e-02
  7.56520981e-02  9.25028237e-02  9.90762359e-02  1.24936612e-01
  1.94726359e-01  1.98479411e-01  2.08951796e-01  2.42057021e-01
  3.27075362e-01  3.36608868e-01  3.74620651e-01  3.91313026e-01
  4.23378094e-01  4.40212109e-01  4.94764039e-01  5.13459444e-01
  5.48724925e-01  5.50895058e-01  5.77879538e-01  6.23729804e-01
  6.45975193e-01  6.72076769e-01  6.92843205e-01  7.51686311e-01
  8.48855824e-01  8.74329169e-01  9.15233518e-01  9.48637087e-01
  9.63863150e-01  9.78265040e-01  1.00451343e+00  1.03928592e+00
  1.05225222e+00  1.06161812e+00  1.09429698e+00  1.13058617e+00
  1.14172322e+00  1.15490494e+00  1.17217111e+00  1.21215708e+00
  1.24736955e+00  1.25676742e+00  1.27986489e+00  1.29170646e+00
  1.32024739e+00  1.32965408e+00  1.36709292e+00  1.38912254e+00
  1.45606999e+00  1.45892133e+00  1.46067819e+00  1.47714643e+00
  1.48771709e+00  1.49032389e+00  1.49369083e+00  1.50296024e+00
  1.50707171e+00  1.51185177e+00  1.51758594e+00  1.52606130e+00
  1.53492617e+00  1.55101941e+00  1.55258006e+00  1.55415638e+00
  1.55849181e+00  1.56637629e+00  1.60153841e+00  1.60321927e+00
  1.69855632e+00  1.79679459e+00  1.80446516e+00  1.81856827e+00]
multiplicity <S^2> = 90.000453  2S+1 = 19.000048
nelec by numeric integration = [144.00015139 126.000097  ]
    CPU time for vxc    111.14 sec, wall time      3.72 sec
E1 = -20801.608977137883  Ecoul = 8001.77993342264  Exc = -448.40662456979015
cycle= 5 E= -8210.16904927349  delta_E=  -12  |g|= 5.66  |ddm|= 4.95
    CPU time for cycle= 5    114.43 sec, wall time      3.82 sec
diis-norm(errvec)=8.00262
diis-c [-15.395268     0.24934049   0.52263302  -0.11603684   0.14335379
   0.20070954]
  alpha nocc = 144  HOMO = 1.15062068513468  LUMO = 1.2126624103917
  beta  nocc = 126  HOMO = 0.602206164840752  LUMO = 0.646230553870488

WARN: system HOMO 1.20459873062488 >= system LUMO 0.646230553870488

  alpha mo_energy =
[-2.52874673e+02 -2.52829956e+02 -2.52823304e+02 -2.52807966e+02
 -8.76258842e+01 -8.75074686e+01 -8.74867429e+01 -8.74227315e+01
 -8.58775009e+01 -8.58508439e+01 -8.58486362e+01 -8.56744333e+01
 -2.84432939e+01 -2.83977816e+01 -2.83915754e+01 -2.83762685e+01
 -2.43567957e+01 -2.43561683e+01 -2.43558477e+01 -2.43113689e+01
 -2.43107319e+01 -2.43104156e+01 -2.43049296e+01 -2.43044668e+01
 -2.43043915e+01 -2.42898104e+01 -2.42891212e+01 -2.42889594e+01
 -1.00358903e+01 -9.89195182e+00 -9.83357521e+00 -9.83140854e+00
 -7.72707369e+00 -7.61426208e+00 -7.59794082e+00 -7.53668928e+00
 -6.12531879e+00 -6.10062791e+00 -6.09425844e+00 -5.94013658e+00
 -5.67756805e+00 -5.67219156e+00 -5.66872855e+00 -5.56577200e+00
 -5.55879151e+00 -5.55558168e+00 -5.54923912e+00 -5.54182644e+00
 -5.53902277e+00 -5.48802940e+00 -5.48063143e+00 -5.47813800e+00
 -4.06878982e+00 -4.06519602e+00 -4.06441001e+00 -4.04432354e+00
 -4.04097395e+00 -4.03960107e+00 -4.03860595e+00 -4.03518441e+00
 -4.03509899e+00 -3.88440080e+00 -3.87988688e+00 -3.87944931e+00
 -1.95956315e+00 -1.91134589e+00 -1.90642804e+00 -1.89082387e+00
 -8.27687127e-01 -7.29715839e-01 -7.18312931e-01 -7.08056592e-01
 -7.07302001e-01 -6.89675045e-01 -6.70535510e-01 -6.63810965e-01
 -6.60870129e-01 -6.58834559e-01 -6.58256068e-01 -6.56242675e-01
 -6.55572527e-01 -6.50105031e-01 -6.41470797e-01 -6.40787915e-01
 -6.38575530e-01 -5.46206641e-01 -5.21202821e-01 -4.83362275e-01
 -4.81432326e-01 -4.58770702e-01 -3.88166954e-01 -3.63425694e-01
 -3.48078607e-01 -3.32516633e-01 -3.25410066e-01 -3.12171282e-01
 -3.06891457e-01 -2.55487445e-01 -2.35383214e-01 -2.02673090e-01
 -1.36506746e-01 -5.40770894e-02 -4.67406089e-02 -4.53996703e-02
  1.01110846e-03  3.94499621e-02  4.24295072e-02  5.05348192e-02
  9.02440964e-02  1.52539732e-01  1.66276519e-01  1.71181442e-01
  2.08218111e-01  2.69937261e-01  2.94012079e-01  3.18606490e-01
  3.46924445e-01  3.56236990e-01  3.85136652e-01  4.06946209e-01
  4.46193528e-01  4.48096548e-01  4.64044971e-01  4.82839843e-01
  5.01967997e-01  5.17187278e-01  5.27618214e-01  6.29507009e-01
  8.19254603e-01  8.56982087e-01  8.72861162e-01  9.03599478e-01
  9.21800862e-01  9.28589405e-01  9.60101122e-01  9.97571543e-01
  1.00150574e+00  1.03056058e+00  1.03725286e+00  1.06755003e+00
  1.08855407e+00  1.12111565e+00  1.13802803e+00  1.15062069e+00
  1.21266241e+00  1.21929631e+00  1.25954125e+00  1.26825187e+00
  1.27179631e+00  1.28204491e+00  1.31704104e+00  1.34315852e+00
  1.46458789e+00  1.46746664e+00  1.47162021e+00  1.48963893e+00
  1.50366024e+00  1.50845516e+00  1.51175994e+00  1.51545951e+00
  1.51993961e+00  1.53027757e+00  1.53438060e+00  1.53935507e+00
  1.54018931e+00  1.54327877e+00  1.55353045e+00  1.55798178e+00
  1.55999216e+00  1.57130629e+00  1.57962999e+00  1.58917432e+00
  1.67714109e+00  1.77739396e+00  1.78896899e+00  1.79520428e+00]
  beta  mo_energy =
[-2.52873344e+02 -2.52828616e+02 -2.52821915e+02 -2.52806575e+02
 -8.76209714e+01 -8.75020164e+01 -8.74809624e+01 -8.74167731e+01
 -8.58683689e+01 -8.58421629e+01 -8.58408595e+01 -8.56674401e+01
 -2.84418660e+01 -2.83963374e+01 -2.83900811e+01 -2.83747662e+01
 -2.43552906e+01 -2.43543931e+01 -2.43542720e+01 -2.43099286e+01
 -2.43090323e+01 -2.43086570e+01 -2.43034179e+01 -2.43026562e+01
 -2.43026330e+01 -2.42883357e+01 -2.42872572e+01 -2.42871928e+01
 -1.00267435e+01 -9.87888689e+00 -9.82038181e+00 -9.81299337e+00
 -7.72068453e+00 -7.60709640e+00 -7.59032037e+00 -7.52877726e+00
 -6.11306055e+00 -6.08899473e+00 -6.08393530e+00 -5.93072538e+00
 -5.67040818e+00 -5.66624791e+00 -5.66056734e+00 -5.55748867e+00
 -5.55171152e+00 -5.54705187e+00 -5.54056012e+00 -5.53386617e+00
 -5.53009973e+00 -5.47876024e+00 -5.47230069e+00 -5.46918310e+00
 -4.05384126e+00 -4.05165374e+00 -4.04993246e+00 -4.02950060e+00
 -4.02820043e+00 -4.02647850e+00 -4.02608743e+00 -4.02351215e+00
 -4.02159236e+00 -3.87201277e+00 -3.86943251e+00 -3.86898435e+00
 -1.95470796e+00 -1.90638903e+00 -1.90130584e+00 -1.88566783e+00
 -7.67356566e-01 -7.12847768e-01 -7.02436792e-01 -7.02020752e-01
 -6.65839045e-01 -6.58947379e-01 -6.55461130e-01 -6.53233291e-01
 -6.50825051e-01 -6.49984048e-01 -6.45767466e-01 -6.45302199e-01
 -6.34991324e-01 -6.32966102e-01 -6.10656406e-01 -5.87308762e-01
 -5.61148249e-01 -4.76808224e-01 -4.48679413e-01 -3.99174981e-01
 -3.98969645e-01 -3.82815756e-01 -2.91416339e-01 -2.88392632e-01
 -2.57046193e-01 -2.33843009e-01 -1.95738962e-01 -1.90729569e-01
 -1.83689122e-01 -1.81303344e-01 -1.63529498e-01 -1.22226621e-01
 -7.64475950e-02  8.96393632e-03  1.95848524e-02  2.15452344e-02
  7.31167659e-02  1.00243922e-01  1.04148749e-01  1.12452749e-01
  1.53028428e-01  2.28276618e-01  2.40947545e-01  2.43492937e-01
  2.90924207e-01  3.67638339e-01  3.75217325e-01  4.20268513e-01
  4.30738717e-01  4.82074498e-01  4.82706465e-01  5.20609121e-01
  5.48794151e-01  5.68086737e-01  5.71796190e-01  5.78322938e-01
  5.83762166e-01  6.02206165e-01  6.46230554e-01  6.91195078e-01
  8.71242444e-01  9.10428727e-01  9.24277946e-01  9.59924189e-01
  9.74050728e-01  9.81746049e-01  1.01417268e+00  1.04949101e+00
  1.05346873e+00  1.09323340e+00  1.09831598e+00  1.12538579e+00
  1.14740100e+00  1.17754384e+00  1.19384088e+00  1.20459873e+00
  1.25926156e+00  1.26602205e+00  1.30650954e+00  1.31650012e+00
  1.31988052e+00  1.33060791e+00  1.36518028e+00  1.39113730e+00
  1.47370435e+00  1.47623800e+00  1.47971596e+00  1.50233344e+00
  1.51299416e+00  1.51731823e+00  1.51883856e+00  1.52282931e+00
  1.52779027e+00  1.53526886e+00  1.54147465e+00  1.54543715e+00
  1.54621859e+00  1.55001692e+00  1.56379025e+00  1.56871637e+00
  1.56956515e+00  1.58381500e+00  1.59211022e+00  1.60332822e+00
  1.71369458e+00  1.81107136e+00  1.82304233e+00  1.82802003e+00]
multiplicity <S^2> = 90.000434  2S+1 = 19.000046
nelec by numeric integration = [144.00014962 126.00011071]
    CPU time for vxc    113.76 sec, wall time      3.70 sec
E1 = -20789.308545678494  Ecoul = 7994.234644712524  Exc = -448.5336512655905
cycle= 6 E= -8205.54093322001  delta_E= 4.63  |g|= 5.54  |ddm|= 3.94
    CPU time for cycle= 6    117.06 sec, wall time      3.80 sec
diis-norm(errvec)=7.83962
diis-c [-15.26480007   0.24777421   0.52359103  -0.11301504   0.01911264
   0.12587177   0.19666538]
  alpha nocc = 144  HOMO = 1.15298336003274  LUMO = 1.230238088366
  beta  nocc = 126  HOMO = 0.603068447158403  LUMO = 0.630988763455441

WARN: system HOMO 1.20810752165477 >= system LUMO 0.630988763455441

  alpha mo_energy =
[-2.52841070e+02 -2.52811493e+02 -2.52800971e+02 -2.52785316e+02
 -8.76211740e+01 -8.75238395e+01 -8.74874677e+01 -8.74229220e+01
 -8.58383643e+01 -8.58176021e+01 -8.58120222e+01 -8.57274200e+01
 -2.84104301e+01 -2.83801637e+01 -2.83699418e+01 -2.83544733e+01
 -2.43238376e+01 -2.43231903e+01 -2.43228935e+01 -2.42936208e+01
 -2.42930134e+01 -2.42926963e+01 -2.42832220e+01 -2.42827265e+01
 -2.42826606e+01 -2.42678855e+01 -2.42672425e+01 -2.42670745e+01
 -1.00300931e+01 -9.89067304e+00 -9.88762139e+00 -9.82044719e+00
 -7.72173258e+00 -7.63004504e+00 -7.59803449e+00 -7.53632326e+00
 -6.08451667e+00 -6.07077078e+00 -6.06499480e+00 -5.98728803e+00
 -5.67223867e+00 -5.66684635e+00 -5.66333978e+00 -5.58156032e+00
 -5.57449706e+00 -5.57125744e+00 -5.54937471e+00 -5.54194411e+00
 -5.53912950e+00 -5.48764094e+00 -5.48030295e+00 -5.47781100e+00
 -4.02876004e+00 -4.02533493e+00 -4.02517631e+00 -4.01436606e+00
 -4.01072337e+00 -4.00996857e+00 -4.00865956e+00 -4.00520367e+00
 -4.00382645e+00 -3.93114856e+00 -3.92700505e+00 -3.92649038e+00
 -1.93116682e+00 -1.89862480e+00 -1.88900384e+00 -1.87368151e+00
 -8.21590126e-01 -7.25815416e-01 -7.20177752e-01 -6.90232245e-01
 -6.79384053e-01 -6.78927567e-01 -6.57492909e-01 -6.53441704e-01
 -6.47949244e-01 -6.46973652e-01 -6.46361888e-01 -6.38468176e-01
 -6.37959736e-01 -6.35061521e-01 -6.32869933e-01 -6.23716854e-01
 -6.21950933e-01 -5.45580904e-01 -5.43430956e-01 -4.81184809e-01
 -4.74015045e-01 -4.51301284e-01 -3.82247224e-01 -3.70999970e-01
 -3.57640330e-01 -3.49904472e-01 -3.41752166e-01 -3.22060091e-01
 -3.08493730e-01 -2.59964321e-01 -2.53260013e-01 -1.99293076e-01
 -1.29268427e-01 -6.01105759e-02 -4.51088326e-02 -4.48570059e-02
  2.52612137e-03  2.73392222e-02  4.52381765e-02  5.72308583e-02
  9.27262548e-02  1.41795060e-01  1.54810828e-01  1.76930292e-01
  2.12155968e-01  2.74021377e-01  2.86327865e-01  3.02201529e-01
  3.55577925e-01  3.60195933e-01  3.87069727e-01  3.91815157e-01
  4.32846616e-01  4.40643692e-01  4.54249770e-01  4.92093074e-01
  5.21356907e-01  5.28633415e-01  5.33250024e-01  5.95272089e-01
  8.38926915e-01  8.70858225e-01  8.81867279e-01  9.10738756e-01
  9.38602212e-01  9.49942409e-01  9.82480911e-01  9.98000078e-01
  1.00341731e+00  1.04805460e+00  1.05349584e+00  1.07642279e+00
  1.10165785e+00  1.12413983e+00  1.14369260e+00  1.15298336e+00
  1.23023809e+00  1.23837116e+00  1.26298678e+00  1.27730968e+00
  1.27999152e+00  1.29063612e+00  1.31976359e+00  1.34698156e+00
  1.48798907e+00  1.49239273e+00  1.49610579e+00  1.50951400e+00
  1.52574522e+00  1.52877626e+00  1.53111085e+00  1.53329153e+00
  1.53712211e+00  1.54518204e+00  1.55139571e+00  1.55533315e+00
  1.55645409e+00  1.56034534e+00  1.56671393e+00  1.57329276e+00
  1.57563324e+00  1.58705134e+00  1.59590224e+00  1.60298082e+00
  1.69295411e+00  1.79309125e+00  1.80232345e+00  1.80797340e+00]
  beta  mo_energy =
[-2.52839785e+02 -2.52810181e+02 -2.52799620e+02 -2.52783943e+02
 -8.76162445e+01 -8.75183709e+01 -8.74816721e+01 -8.74169504e+01
 -8.58305186e+01 -8.58088831e+01 -8.58035388e+01 -8.57201536e+01
 -2.84090346e+01 -2.83787337e+01 -2.83684760e+01 -2.83529764e+01
 -2.43223692e+01 -2.43214647e+01 -2.43213690e+01 -2.42922144e+01
 -2.42913422e+01 -2.42909459e+01 -2.42817191e+01 -2.42809807e+01
 -2.42809491e+01 -2.42664276e+01 -2.42654007e+01 -2.42653038e+01
 -1.00209557e+01 -9.87647860e+00 -9.87456889e+00 -9.80231556e+00
 -7.71532688e+00 -7.62286229e+00 -7.59039794e+00 -7.52839663e+00
 -6.07410637e+00 -6.05911486e+00 -6.05364127e+00 -5.97744598e+00
 -5.66506794e+00 -5.66088731e+00 -5.65513556e+00 -5.57327827e+00
 -5.56739570e+00 -5.56267814e+00 -5.54068324e+00 -5.53397092e+00
 -5.53016905e+00 -5.47836841e+00 -5.47196063e+00 -5.46881647e+00
 -4.01648008e+00 -4.01359191e+00 -4.01151005e+00 -3.99996128e+00
 -3.99775082e+00 -3.99595439e+00 -3.99411542e+00 -3.99269180e+00
 -3.99053555e+00 -3.91845860e+00 -3.91630235e+00 -3.91555352e+00
 -1.92634996e+00 -1.89364927e+00 -1.88391786e+00 -1.86848842e+00
 -7.61163510e-01 -6.84662445e-01 -6.73805015e-01 -6.73632646e-01
 -6.52965784e-01 -6.44990359e-01 -6.42847201e-01 -6.41162582e-01
 -6.39623418e-01 -6.37559974e-01 -6.32680413e-01 -6.32251431e-01
 -6.27781084e-01 -6.17861961e-01 -6.16232456e-01 -5.81125412e-01
 -5.57345394e-01 -4.74106040e-01 -4.73883620e-01 -3.96872428e-01
 -3.91358675e-01 -3.75352325e-01 -2.85248086e-01 -2.82405141e-01
 -2.67152334e-01 -2.50958740e-01 -2.38693034e-01 -1.89941687e-01
 -1.85596345e-01 -1.81285703e-01 -1.79787109e-01 -1.19049759e-01
 -6.90947308e-02  4.77561878e-03  1.82002572e-02  2.35599351e-02
  7.46871233e-02  8.84055410e-02  1.07079296e-01  1.19230252e-01
  1.55647783e-01  2.16361854e-01  2.30686477e-01  2.49300026e-01
  2.94697657e-01  3.71833437e-01  3.83552405e-01  3.89315283e-01
  4.39460946e-01  4.86132740e-01  4.88798263e-01  4.93488521e-01
  5.54204877e-01  5.59628494e-01  5.74332614e-01  5.93916848e-01
  5.99556550e-01  6.03068447e-01  6.30988763e-01  6.63568776e-01
  8.88863848e-01  9.21735122e-01  9.32973949e-01  9.66528199e-01
  9.88982967e-01  1.00013461e+00  1.03403202e+00  1.04935868e+00
  1.05554691e+00  1.10835433e+00  1.11619115e+00  1.13754745e+00
  1.15815831e+00  1.18105391e+00  1.19951437e+00  1.20810752e+00
  1.27647508e+00  1.28467827e+00  1.31066425e+00  1.32483993e+00
  1.32859554e+00  1.33921538e+00  1.36977721e+00  1.39665119e+00
  1.49826688e+00  1.50110648e+00  1.50496113e+00  1.52111912e+00
  1.53254131e+00  1.53577472e+00  1.53997642e+00  1.54025873e+00
  1.54438782e+00  1.55042624e+00  1.55920223e+00  1.56178120e+00
  1.56253923e+00  1.56745115e+00  1.57624165e+00  1.58382082e+00
  1.58464580e+00  1.59955316e+00  1.60811871e+00  1.61654481e+00
  1.73016199e+00  1.82667347e+00  1.83652758e+00  1.84117237e+00]
multiplicity <S^2> = 90.000417  2S+1 = 19.000044
nelec by numeric integration = [144.00014899 126.00010472]
    CPU time for vxc    112.08 sec, wall time      3.75 sec
E1 = -20788.624732925597  Ecoul = 7993.670469341467  Exc = -448.5364582051645
cycle= 7 E= -8205.42410277775  delta_E= 0.117  |g|= 5.56  |ddm|= 2.02
    CPU time for cycle= 7    115.40 sec, wall time      3.84 sec
diis-norm(errvec)=7.86103
diis-c [-15.26395527   0.24780839   0.52358852  -0.11292949   0.01681164
   0.12300293   0.17592212   0.02579589]
  alpha nocc = 144  HOMO = 1.15299394934991  LUMO = 1.23010038823667
  beta  nocc = 126  HOMO = 0.602667338901279  LUMO = 0.630034383325685

WARN: system HOMO 1.20818536048804 >= system LUMO 0.630034383325685

  alpha mo_energy =
[-2.52841370e+02 -2.52811183e+02 -2.52801000e+02 -2.52785516e+02
 -8.76213744e+01 -8.75230059e+01 -8.74875405e+01 -8.74234898e+01
 -8.58380860e+01 -8.58185670e+01 -8.58126067e+01 -8.57258119e+01
 -2.84107262e+01 -2.83798489e+01 -2.83699640e+01 -2.83546652e+01
 -2.43241351e+01 -2.43234867e+01 -2.43231897e+01 -2.42933052e+01
 -2.42926997e+01 -2.42923853e+01 -2.42832458e+01 -2.42827483e+01
 -2.42826835e+01 -2.42680779e+01 -2.42674347e+01 -2.42672681e+01
 -1.00303969e+01 -9.88790639e+00 -9.88732657e+00 -9.82327523e+00
 -7.72193133e+00 -7.62921259e+00 -7.59810563e+00 -7.53689065e+00
 -6.08430184e+00 -6.07156223e+00 -6.06550014e+00 -5.98592213e+00
 -5.67243734e+00 -5.66704467e+00 -5.66353933e+00 -5.58072696e+00
 -5.57367007e+00 -5.57042994e+00 -5.54944511e+00 -5.54201371e+00
 -5.53920029e+00 -5.48821167e+00 -5.48086607e+00 -5.47837366e+00
 -4.02853493e+00 -4.02511955e+00 -4.02495860e+00 -4.01517043e+00
 -4.01152608e+00 -4.01076606e+00 -4.00917752e+00 -4.00571209e+00
 -4.00434131e+00 -3.92975798e+00 -3.92561630e+00 -3.92510398e+00
 -1.93144325e+00 -1.89827571e+00 -1.88901167e+00 -1.87385073e+00
 -8.21828650e-01 -7.26010891e-01 -7.18438282e-01 -6.90505197e-01
 -6.79662305e-01 -6.79205428e-01 -6.57156119e-01 -6.54729741e-01
 -6.47616914e-01 -6.46957405e-01 -6.46030671e-01 -6.38481367e-01
 -6.37969012e-01 -6.35276298e-01 -6.33062624e-01 -6.23879698e-01
 -6.22108221e-01 -5.44235833e-01 -5.43559053e-01 -4.82232059e-01
 -4.74287113e-01 -4.51568791e-01 -3.82498247e-01 -3.68674635e-01
 -3.57882398e-01 -3.47607512e-01 -3.41961699e-01 -3.23816274e-01
 -3.10198846e-01 -2.58566145e-01 -2.53376175e-01 -2.00344544e-01
 -1.29460048e-01 -5.92688189e-02 -4.53200374e-02 -4.49210736e-02
  1.95148741e-03  2.81256302e-02  4.51707969e-02  5.70150140e-02
  9.21995800e-02  1.43191094e-01  1.54690818e-01  1.76699262e-01
  2.11120698e-01  2.73820209e-01  2.88105343e-01  3.01932443e-01
  3.55299780e-01  3.58871364e-01  3.88396816e-01  3.91563346e-01
  4.32536402e-01  4.41577385e-01  4.53985512e-01  4.91381212e-01
  5.21038950e-01  5.28337881e-01  5.33207647e-01  5.95913548e-01
  8.38704450e-01  8.70930841e-01  8.81849843e-01  9.10703664e-01
  9.38539184e-01  9.49772059e-01  9.82265770e-01  9.98279862e-01
  1.00361984e+00  1.04802882e+00  1.05330953e+00  1.07661036e+00
  1.10160473e+00  1.12429866e+00  1.14380777e+00  1.15299395e+00
  1.23010039e+00  1.23819526e+00  1.26322578e+00  1.27743866e+00
  1.28004437e+00  1.29056130e+00  1.31983338e+00  1.34705645e+00
  1.48785221e+00  1.49219222e+00  1.49594692e+00  1.50953384e+00
  1.52580553e+00  1.52879913e+00  1.53099232e+00  1.53326896e+00
  1.53709360e+00  1.54530956e+00  1.55141846e+00  1.55531892e+00
  1.55639855e+00  1.56027580e+00  1.56687876e+00  1.57329850e+00
  1.57566518e+00  1.58710199e+00  1.59581846e+00  1.60293487e+00
  1.69295829e+00  1.79309083e+00  1.80238331e+00  1.80799269e+00]
  beta  mo_energy =
[-2.52840086e+02 -2.52809871e+02 -2.52799651e+02 -2.52784143e+02
 -8.76164448e+01 -8.75175369e+01 -8.74817446e+01 -8.74175176e+01
 -8.58302315e+01 -8.58098725e+01 -8.58041361e+01 -8.57185053e+01
 -2.84093313e+01 -2.83784193e+01 -2.83684989e+01 -2.83531689e+01
 -2.43226682e+01 -2.43217612e+01 -2.43216657e+01 -2.42918965e+01
 -2.42910286e+01 -2.42906382e+01 -2.42817435e+01 -2.42810047e+01
 -2.42809719e+01 -2.42666185e+01 -2.42655931e+01 -2.42655006e+01
 -1.00212592e+01 -9.87485337e+00 -9.87320014e+00 -9.80506536e+00
 -7.71552550e+00 -7.62202937e+00 -7.59046876e+00 -7.52896328e+00
 -6.07388004e+00 -6.05993853e+00 -6.05416332e+00 -5.97602433e+00
 -5.66526679e+00 -5.66108555e+00 -5.65533449e+00 -5.57244406e+00
 -5.56656855e+00 -5.56184998e+00 -5.54075379e+00 -5.53403982e+00
 -5.53023907e+00 -5.47893827e+00 -5.47252350e+00 -5.46937741e+00
 -4.01623627e+00 -4.01336554e+00 -4.01128247e+00 -4.00080687e+00
 -3.99859181e+00 -3.99678055e+00 -3.99465950e+00 -3.99321888e+00
 -3.99106445e+00 -3.91699960e+00 -3.91485198e+00 -3.91411095e+00
 -1.92662854e+00 -1.89330135e+00 -1.88392654e+00 -1.86865945e+00
 -7.61400164e-01 -6.84941219e-01 -6.74084324e-01 -6.73912461e-01
 -6.52582128e-01 -6.45110500e-01 -6.42425863e-01 -6.40726115e-01
 -6.39679709e-01 -6.36211668e-01 -6.32693195e-01 -6.32261723e-01
 -6.27958693e-01 -6.18023674e-01 -6.16396249e-01 -5.81339032e-01
 -5.58488546e-01 -4.74036887e-01 -4.72693358e-01 -3.97978462e-01
 -3.91632852e-01 -3.75618698e-01 -2.85476507e-01 -2.82638750e-01
 -2.65358625e-01 -2.51201461e-01 -2.36178425e-01 -1.89748169e-01
 -1.86036529e-01 -1.81406799e-01 -1.81372588e-01 -1.20078363e-01
 -6.92865787e-02  5.62592338e-03  1.79872265e-02  2.34955976e-02
  7.40992702e-02  8.91886029e-02  1.07016745e-01  1.19017942e-01
  1.55130602e-01  2.17762768e-01  2.30563566e-01  2.49070697e-01
  2.93658758e-01  3.71633942e-01  3.83283831e-01  3.91016744e-01
  4.39183072e-01  4.84971613e-01  4.88545270e-01  4.94797323e-01
  5.55253484e-01  5.59355035e-01  5.73790806e-01  5.93882962e-01
  5.99317558e-01  6.02667339e-01  6.30034383e-01  6.64579394e-01
  8.88623760e-01  9.21811429e-01  9.32903810e-01  9.66516787e-01
  9.88894953e-01  9.99940633e-01  1.03374048e+00  1.04977288e+00
  1.05582391e+00  1.10834665e+00  1.11593451e+00  1.13768942e+00
  1.15818069e+00  1.18128841e+00  1.19967336e+00  1.20818536e+00
  1.27632497e+00  1.28447125e+00  1.31092088e+00  1.32498512e+00
  1.32860845e+00  1.33913299e+00  1.36986364e+00  1.39674873e+00
  1.49809909e+00  1.50089911e+00  1.50478129e+00  1.52118448e+00
  1.53266254e+00  1.53587081e+00  1.53978093e+00  1.54025919e+00
  1.54438906e+00  1.55053074e+00  1.55918635e+00  1.56171230e+00
  1.56247459e+00  1.56735308e+00  1.57644116e+00  1.58384581e+00
  1.58467271e+00  1.59958187e+00  1.60805629e+00  1.61653781e+00
  1.73018515e+00  1.82668754e+00  1.83660664e+00  1.84118878e+00]
multiplicity <S^2> = 90.000417  2S+1 = 19.000044
nelec by numeric integration = [144.000149   126.00010531]
    CPU time for vxc    112.07 sec, wall time      3.81 sec
E1 = -20788.646158702322  Ecoul = 7993.682498047619  Exc = -448.53516110256004
cycle= 8 E= -8205.43220274571  delta_E= -0.0081  |g|= 5.56  |ddm|= 0.134
    CPU time for cycle= 8    115.38 sec, wall time      3.90 sec
diis-norm(errvec)=7.86056
diis-c [-1.52600396e+01  2.47808740e-01  5.23579732e-01 -1.13291716e-01
  1.14817460e-02  1.06664813e-01  2.61269113e-01  1.83685492e+00
 -1.87436734e+00]
  alpha nocc = 144  HOMO = 1.15157350311196  LUMO = 1.23060373234391
  beta  nocc = 126  HOMO = 0.603499158680937  LUMO = 0.631480282464865

WARN: system HOMO 1.20701129796223 >= system LUMO 0.631480282464865

  alpha mo_energy =
[-2.52840442e+02 -2.52811172e+02 -2.52802307e+02 -2.52785567e+02
 -8.76211379e+01 -8.75230814e+01 -8.74884332e+01 -8.74231138e+01
 -8.58354937e+01 -8.58157722e+01 -8.58108926e+01 -8.57388666e+01
 -2.84098314e+01 -2.83799036e+01 -2.83713150e+01 -2.83547758e+01
 -2.43232339e+01 -2.43225861e+01 -2.43222918e+01 -2.42933508e+01
 -2.42927508e+01 -2.42924346e+01 -2.42845930e+01 -2.42840935e+01
 -2.42840285e+01 -2.42681792e+01 -2.42675420e+01 -2.42673732e+01
 -1.00301751e+01 -9.88805619e+00 -9.88600853e+00 -9.82020514e+00
 -7.72167766e+00 -7.62927215e+00 -7.59897225e+00 -7.53649223e+00
 -6.08207055e+00 -6.06912392e+00 -6.06403560e+00 -5.99751735e+00
 -5.67218323e+00 -5.66678997e+00 -5.66328817e+00 -5.58078498e+00
 -5.57373261e+00 -5.57050058e+00 -5.55031889e+00 -5.54288535e+00
 -5.54008126e+00 -5.48781342e+00 -5.48047549e+00 -5.47799596e+00
 -4.02627599e+00 -4.02285797e+00 -4.02269716e+00 -4.01274455e+00
 -4.00908856e+00 -4.00837242e+00 -4.00767610e+00 -4.00424048e+00
 -4.00285952e+00 -3.94132032e+00 -3.93722207e+00 -3.93669399e+00
 -1.93066729e+00 -1.89850508e+00 -1.89047322e+00 -1.87412070e+00
 -8.21614144e-01 -7.26267051e-01 -7.17902670e-01 -6.89681342e-01
 -6.78852238e-01 -6.78433833e-01 -6.57346026e-01 -6.52961167e-01
 -6.48463312e-01 -6.47820425e-01 -6.46337559e-01 -6.39893851e-01
 -6.39381762e-01 -6.35034652e-01 -6.33255544e-01 -6.24117804e-01
 -6.22441445e-01 -5.44076393e-01 -5.43812040e-01 -4.81083511e-01
 -4.74083166e-01 -4.51341711e-01 -3.82610787e-01 -3.67837885e-01
 -3.58012404e-01 -3.46721303e-01 -3.41697253e-01 -3.22627300e-01
 -3.07274157e-01 -2.58199966e-01 -2.53952714e-01 -1.99186253e-01
 -1.29155559e-01 -5.92959470e-02 -4.56931563e-02 -4.50030674e-02
  2.38857886e-03  2.80462363e-02  4.42473841e-02  5.72898269e-02
  9.24789096e-02  1.43487614e-01  1.54056835e-01  1.76891632e-01
  2.12293082e-01  2.73650893e-01  2.88761012e-01  3.02145701e-01
  3.55510453e-01  3.60654331e-01  3.89631830e-01  3.91499853e-01
  4.35857726e-01  4.41690312e-01  4.53975952e-01  4.93109790e-01
  5.22441933e-01  5.29324399e-01  5.34301695e-01  5.88352586e-01
  8.39361003e-01  8.70478625e-01  8.81500846e-01  9.10235829e-01
  9.38822238e-01  9.50021690e-01  9.83040062e-01  9.95912589e-01
  1.00141231e+00  1.04845722e+00  1.05353195e+00  1.07447467e+00
  1.10127774e+00  1.12336565e+00  1.14213701e+00  1.15157350e+00
  1.23060373e+00  1.23856732e+00  1.26154246e+00  1.27654037e+00
  1.27969316e+00  1.29000344e+00  1.31832792e+00  1.34570124e+00
  1.48807106e+00  1.49262308e+00  1.49627030e+00  1.50944880e+00
  1.52567586e+00  1.52868289e+00  1.53132241e+00  1.53311140e+00
  1.53639000e+00  1.54444503e+00  1.55100259e+00  1.55475632e+00
  1.55596862e+00  1.55971241e+00  1.56641062e+00  1.57241150e+00
  1.57502641e+00  1.58640227e+00  1.59554444e+00  1.60200509e+00
  1.69245743e+00  1.79282896e+00  1.80173755e+00  1.80712681e+00]
  beta  mo_energy =
[-2.52839162e+02 -2.52809861e+02 -2.52800959e+02 -2.52784196e+02
 -8.76162073e+01 -8.75176115e+01 -8.74826365e+01 -8.74171411e+01
 -8.58276156e+01 -8.58070892e+01 -8.58024251e+01 -8.57315133e+01
 -2.84084396e+01 -2.83784727e+01 -2.83698510e+01 -2.83532789e+01
 -2.43217707e+01 -2.43208651e+01 -2.43207725e+01 -2.42919428e+01
 -2.42910828e+01 -2.42906809e+01 -2.42830892e+01 -2.42823532e+01
 -2.42823208e+01 -2.42667216e+01 -2.42657034e+01 -2.42656008e+01
 -1.00210373e+01 -9.87500276e+00 -9.87191254e+00 -9.80202340e+00
 -7.71527074e+00 -7.62208794e+00 -7.59133432e+00 -7.52856414e+00
 -6.07161979e+00 -6.05751804e+00 -6.05270434e+00 -5.98754037e+00
 -5.66501249e+00 -5.66083003e+00 -5.65507992e+00 -5.57250184e+00
 -5.56662927e+00 -5.56191929e+00 -5.54162559e+00 -5.53491199e+00
 -5.53111832e+00 -5.47854058e+00 -5.47213229e+00 -5.46899793e+00
 -4.01394670e+00 -4.01106862e+00 -4.00897936e+00 -3.99839545e+00
 -3.99616260e+00 -3.99440014e+00 -3.99316043e+00 -3.99174916e+00
 -3.98958194e+00 -3.92851327e+00 -3.92642069e+00 -3.92562197e+00
 -1.92585544e+00 -1.89352138e+00 -1.88538834e+00 -1.86892265e+00
 -7.61181582e-01 -6.84116320e-01 -6.73288778e-01 -6.73130235e-01
 -6.52748953e-01 -6.45866973e-01 -6.42597487e-01 -6.40970170e-01
 -6.40744069e-01 -6.35864181e-01 -6.34093252e-01 -6.33663757e-01
 -6.28174023e-01 -6.18265436e-01 -6.16715733e-01 -5.81102353e-01
 -5.56975477e-01 -4.74465212e-01 -4.72270230e-01 -3.96679429e-01
 -3.91428038e-01 -3.75393454e-01 -2.85398030e-01 -2.82589705e-01
 -2.64492899e-01 -2.51327373e-01 -2.35423549e-01 -1.88917460e-01
 -1.85402959e-01 -1.81965911e-01 -1.78721124e-01 -1.18935489e-01
 -6.89810756e-02  5.62647925e-03  1.83094771e-02  2.27275430e-02
  7.45399569e-02  8.90979156e-02  1.06074841e-01  1.19296618e-01
  1.55392719e-01  2.18065947e-01  2.29944405e-01  2.49260913e-01
  2.94840590e-01  3.71469942e-01  3.83501131e-01  3.91640580e-01
  4.39390639e-01  4.86657826e-01  4.88483781e-01  4.95791686e-01
  5.57133244e-01  5.59412696e-01  5.74581124e-01  5.94969348e-01
  6.00516757e-01  6.03499159e-01  6.31480282e-01  6.58792289e-01
  8.89214309e-01  9.21452913e-01  9.32663111e-01  9.66249102e-01
  9.89133318e-01  1.00005046e+00  1.03448157e+00  1.04776031e+00
  1.05402903e+00  1.10891942e+00  1.11612545e+00  1.13641701e+00
  1.15775267e+00  1.18033605e+00  1.19816993e+00  1.20701130e+00
  1.27679765e+00  1.28482577e+00  1.30936100e+00  1.32426935e+00
  1.32815588e+00  1.33856566e+00  1.36862018e+00  1.39561000e+00
  1.49849753e+00  1.50136318e+00  1.50519105e+00  1.52101209e+00
  1.53240840e+00  1.53560139e+00  1.53985520e+00  1.54021468e+00
  1.54366566e+00  1.54965096e+00  1.55887788e+00  1.56126581e+00
  1.56203085e+00  1.56690125e+00  1.57590707e+00  1.58291726e+00
  1.58403155e+00  1.59905247e+00  1.60775150e+00  1.61553477e+00
  1.72976909e+00  1.82644409e+00  1.83592049e+00  1.84042185e+00]
multiplicity <S^2> = 90.000419  2S+1 = 19.000044
nelec by numeric integration = [144.00014891 126.00010523]
    CPU time for vxc    112.33 sec, wall time      3.76 sec
E1 = -20788.729025364144  Ecoul = 7993.725216331407  Exc = -448.53586245280974
cycle= 9 E= -8205.473052474  delta_E= -0.0408  |g|= 5.56  |ddm|= 0.172
    CPU time for cycle= 9    115.70 sec, wall time      3.85 sec
diis-norm(errvec)=7.86512
diis-c [-17.88176306  -0.26481526   0.5810959   -0.06849443   0.08166191
   0.1590111    0.28782429   1.56285584  -1.33913935]
  alpha nocc = 144  HOMO = 0.999685210609564  LUMO = 1.12636397083881
  beta  nocc = 126  HOMO = 0.736202360960559  LUMO = 0.748780705558945

WARN: system HOMO 1.05846790690975 >= system LUMO 0.748780705558945

  alpha mo_energy =
[-2.52492216e+02 -2.52459162e+02 -2.52446210e+02 -2.52440909e+02
 -8.77580078e+01 -8.76022983e+01 -8.75510187e+01 -8.74957941e+01
 -8.63576424e+01 -8.63418722e+01 -8.63106560e+01 -8.63046456e+01
 -2.80720671e+01 -2.80387333e+01 -2.80259991e+01 -2.80205672e+01
 -2.39835054e+01 -2.39831510e+01 -2.39828448e+01 -2.39502470e+01
 -2.39499024e+01 -2.39494152e+01 -2.39373576e+01 -2.39371871e+01
 -2.39367750e+01 -2.39320579e+01 -2.39317643e+01 -2.39312383e+01
 -9.74427113e+00 -9.53168765e+00 -9.50630314e+00 -9.47680994e+00
 -7.84206051e+00 -7.69720412e+00 -7.65121445e+00 -7.59899689e+00
 -6.54517470e+00 -6.53138422e+00 -6.50762130e+00 -6.50126208e+00
 -5.79260950e+00 -5.78940537e+00 -5.78366659e+00 -5.64757429e+00
 -5.64410816e+00 -5.63880403e+00 -5.60141201e+00 -5.59748339e+00
 -5.59272507e+00 -5.54901562e+00 -5.54540526e+00 -5.54093150e+00
 -4.49262208e+00 -4.49042614e+00 -4.48909553e+00 -4.47954133e+00
 -4.47452000e+00 -4.47397944e+00 -4.45485866e+00 -4.45147131e+00
 -4.45041244e+00 -4.44876706e+00 -4.44532596e+00 -4.44387007e+00
 -1.73756482e+00 -1.70285367e+00 -1.69028574e+00 -1.68464511e+00
 -7.49474359e-01 -6.24787674e-01 -6.03589533e-01 -5.59866004e-01
 -5.58584702e-01 -5.12168205e-01 -4.99566652e-01 -4.98841634e-01
 -4.76946408e-01 -4.65857860e-01 -4.65342970e-01 -4.64338873e-01
 -4.58274619e-01 -4.53804757e-01 -4.52669996e-01 -4.48107913e-01
 -4.46966329e-01 -4.21790309e-01 -4.13950520e-01 -3.66751099e-01
 -3.34535178e-01 -3.03088905e-01 -2.92381009e-01 -2.06417354e-01
 -1.91459673e-01 -1.86043048e-01 -1.75884229e-01 -1.63224693e-01
 -1.62556704e-01 -1.52300802e-01 -1.42782766e-01 -1.39968058e-01
 -1.25862356e-01 -1.03586778e-01 -7.42669731e-02 -5.23586670e-02
 -2.15275214e-02  3.37695640e-03  3.17806785e-02  6.79194473e-02
  9.75110168e-02  2.39375086e-01  2.42495826e-01  2.48590773e-01
  2.51902586e-01  2.56597106e-01  2.65290486e-01  3.06879575e-01
  3.65808033e-01  4.66667101e-01  5.14192721e-01  5.14362991e-01
  5.24812265e-01  5.73513006e-01  5.83251318e-01  5.99612785e-01
  6.16476135e-01  6.23525157e-01  6.58630628e-01  6.65961809e-01
  6.68199839e-01  6.89836639e-01  6.93814635e-01  6.99370483e-01
  7.03324742e-01  7.20152568e-01  7.23531416e-01  7.25396409e-01
  7.26632216e-01  7.78543097e-01  7.87920605e-01  7.92810715e-01
  9.22768281e-01  9.65566095e-01  9.87185095e-01  9.99685211e-01
  1.12636397e+00  1.12721629e+00  1.15326477e+00  1.17374056e+00
  1.17896295e+00  1.18791432e+00  1.19557783e+00  1.20456144e+00
  1.42202563e+00  1.53535242e+00  1.53953275e+00  1.54682335e+00
  1.67547004e+00  1.67589837e+00  1.67951101e+00  1.68176339e+00
  1.68575517e+00  1.70603202e+00  1.70723012e+00  1.71000823e+00
  1.71144822e+00  1.71578892e+00  1.71819882e+00  1.72096145e+00
  1.72534588e+00  1.72850966e+00  1.73226040e+00  1.73553661e+00
  1.74256292e+00  1.78331194e+00  1.78609599e+00  1.79379793e+00]
  beta  mo_energy =
[-2.52491407e+02 -2.52458395e+02 -2.52445417e+02 -2.52440134e+02
 -8.77532769e+01 -8.75973740e+01 -8.75457752e+01 -8.74903505e+01
 -8.63477791e+01 -8.63327519e+01 -8.62999093e+01 -8.62943442e+01
 -2.80711744e+01 -2.80378833e+01 -2.80251324e+01 -2.80197090e+01
 -2.39824924e+01 -2.39822635e+01 -2.39818340e+01 -2.39494180e+01
 -2.39490312e+01 -2.39483692e+01 -2.39363824e+01 -2.39363468e+01
 -2.39357739e+01 -2.39311750e+01 -2.39309009e+01 -2.39302103e+01
 -9.73800262e+00 -9.52157432e+00 -9.49745383e+00 -9.46161665e+00
 -7.83589913e+00 -7.69069238e+00 -7.64425430e+00 -7.59170787e+00
 -6.53183961e+00 -6.51872291e+00 -6.49305994e+00 -6.48729359e+00
 -5.78634514e+00 -5.78350521e+00 -5.77565105e+00 -5.64118932e+00
 -5.63721614e+00 -5.63072631e+00 -5.59471160e+00 -5.58960629e+00
 -5.58429111e+00 -5.54162928e+00 -5.53719975e+00 -5.53240437e+00
 -4.47673848e+00 -4.47410669e+00 -4.47339925e+00 -4.46304384e+00
 -4.46111631e+00 -4.46057579e+00 -4.43633704e+00 -4.43473836e+00
 -4.43404614e+00 -4.43050026e+00 -4.42950020e+00 -4.42831667e+00
 -1.73421030e+00 -1.69962557e+00 -1.68704994e+00 -1.68139401e+00
 -7.04452434e-01 -5.70081768e-01 -5.45327878e-01 -5.08960415e-01
 -4.96398068e-01 -4.95016848e-01 -4.94750071e-01 -4.89197145e-01
 -4.72422143e-01 -4.61978202e-01 -4.60951749e-01 -4.59340745e-01
 -4.53319715e-01 -4.49797730e-01 -4.48848419e-01 -4.44099528e-01
 -4.42690442e-01 -3.30686223e-01 -3.25047453e-01 -2.66067052e-01
 -2.55163906e-01 -2.31820892e-01 -2.10222196e-01 -1.26916616e-01
 -1.16773132e-01 -1.09367512e-01 -9.24123429e-02 -7.81514752e-02
 -5.66124726e-02 -5.19295541e-02 -4.97715205e-02 -3.52854176e-02
 -2.56210467e-02  6.99806155e-03  1.57397250e-02  3.31018103e-02
  7.06894879e-02  7.63995020e-02  9.72774826e-02  1.38210542e-01
  1.54039391e-01  3.11477038e-01  3.26379621e-01  3.34762507e-01
  3.46313545e-01  3.50640381e-01  3.53341615e-01  3.86753945e-01
  4.39859030e-01  5.40739249e-01  6.01295480e-01  6.15922178e-01
  6.19527766e-01  6.73110270e-01  6.87036821e-01  7.13294043e-01
  7.26143740e-01  7.36202361e-01  7.48780706e-01  7.49604045e-01
  7.58391956e-01  7.74408182e-01  7.81436259e-01  7.83443803e-01
  8.02837562e-01  8.03681946e-01  8.04644580e-01  8.09434033e-01
  8.20366375e-01  8.70298199e-01  8.84919900e-01  8.86816660e-01
  9.85003643e-01  1.02566157e+00  1.04586457e+00  1.05846791e+00
  1.17591740e+00  1.17836121e+00  1.20335290e+00  1.22585325e+00
  1.22795665e+00  1.24085975e+00  1.24780948e+00  1.25456564e+00
  1.46427228e+00  1.56528956e+00  1.56730889e+00  1.57324397e+00
  1.67985784e+00  1.68018815e+00  1.68451972e+00  1.68601876e+00
  1.69023895e+00  1.70968623e+00  1.71083854e+00  1.71400099e+00
  1.71573455e+00  1.71993064e+00  1.72152115e+00  1.72528121e+00
  1.72978422e+00  1.73343616e+00  1.73760664e+00  1.74144576e+00
  1.75090364e+00  1.79710936e+00  1.79945602e+00  1.80820662e+00]
multiplicity <S^2> = 90.001434  2S+1 = 19.000151
nelec by numeric integration = [144.00013863 126.00010111]
    CPU time for vxc    111.97 sec, wall time      3.66 sec
E1 = -20817.71387790052  Ecoul = 8011.227998584007  Exc = -448.15697938174895
cycle= 10 E= -8216.57623968671  delta_E= -11.1  |g|=  6.8  |ddm|= 5.49
    CPU time for cycle= 10    115.25 sec, wall time      3.75 sec
diis-norm(errvec)=9.61901
diis-c [-5.88673710e+01 -6.04941682e-02 -7.56383560e-02 -1.85108845e-02
  5.95912432e-01  2.77518843e-01  2.41114863e-01  1.27590223e+00
 -1.23580496e+00]
  alpha nocc = 144  HOMO = 0.354026180081516  LUMO = 0.646082597393345
  beta  nocc = 126  HOMO = -2.42677079923965  LUMO = -2.40711298262996

WARN: system HOMO 0.357500978682812 >= system LUMO -2.40711298262996

  alpha mo_energy =
[-2.62643300e+02 -2.62618084e+02 -2.62605625e+02 -2.62486048e+02
 -9.14837903e+01 -9.09184922e+01 -9.08504174e+01 -9.08030725e+01
 -8.62951511e+01 -8.62295934e+01 -8.61834944e+01 -8.61381518e+01
 -3.81128505e+01 -3.80885330e+01 -3.80769327e+01 -3.79579263e+01
 -3.40356034e+01 -3.40346985e+01 -3.40275738e+01 -3.40108891e+01
 -3.40100329e+01 -3.40026120e+01 -3.39988844e+01 -3.39981804e+01
 -3.39899534e+01 -3.38797874e+01 -3.38789094e+01 -3.38710942e+01
 -1.15194328e+01 -1.10180191e+01 -1.09593084e+01 -1.09231555e+01
 -1.04492419e+01 -1.04323183e+01 -1.04295258e+01 -1.03116104e+01
 -9.43032028e+00 -9.42913725e+00 -9.40887559e+00 -9.04957453e+00
 -9.03899487e+00 -9.02883229e+00 -9.01958397e+00 -9.01859772e+00
 -9.01335829e+00 -8.92139586e+00 -8.91931945e+00 -8.90283483e+00
 -8.89310343e+00 -8.89238486e+00 -8.87789733e+00 -8.85943579e+00
 -8.85737565e+00 -8.85146667e+00 -8.83498508e+00 -8.82719502e+00
 -8.82010482e+00 -8.81926749e+00 -8.78572488e+00 -8.72009211e+00
 -6.67654835e+00 -6.61193153e+00 -6.56741747e+00 -6.53874173e+00
 -6.53815495e+00 -6.52119331e+00 -6.51626644e+00 -6.51567545e+00
 -6.50650580e+00 -6.50550233e+00 -6.48648521e+00 -6.48150048e+00
 -6.46689120e+00 -6.46124267e+00 -6.45640200e+00 -6.44539931e+00
 -6.44332859e+00 -6.43945969e+00 -6.42357092e+00 -6.38821068e+00
 -6.38733639e+00 -6.33047318e+00 -6.32692233e+00 -6.30906904e+00
 -5.94928666e+00 -5.71512457e+00 -5.64149273e+00 -5.56019513e+00
 -5.54649189e+00 -5.06163745e+00 -5.02006396e+00 -4.76502200e+00
 -4.60469223e+00 -4.59407432e+00 -4.57240260e+00 -4.54570997e+00
 -4.53588147e+00 -4.52938070e+00 -4.50640167e+00 -4.49430306e+00
 -4.48379823e+00 -4.45974264e+00 -4.44855660e+00 -4.43855872e+00
 -4.41515029e+00 -4.40886479e+00 -4.32850490e+00 -4.29265580e+00
 -3.66468834e+00 -3.57142064e+00 -3.42906623e+00 -3.35611485e+00
 -3.27950825e+00 -3.18662324e+00 -3.15434491e+00 -3.10331364e+00
 -2.98243487e+00 -2.96540908e+00 -2.94784543e+00 -2.91118241e+00
 -2.87083762e+00 -2.84433990e+00 -2.79622192e+00 -2.72472637e+00
 -2.68502742e+00 -2.53888200e+00 -2.50216726e+00 -2.46786814e+00
 -2.39379376e+00 -2.34219751e+00 -2.25223230e+00 -2.19377075e+00
 -6.41624058e-01 -5.84642767e-01 -5.44294394e-01 -4.86318789e-01
  1.68617472e-01  2.07527229e-01  2.28387949e-01  2.65114605e-01
  2.73095041e-01  3.08964099e-01  3.17783089e-01  3.54026180e-01
  6.46082597e-01  7.20704799e-01  7.85076044e-01  8.16097920e-01
  1.22109943e+00  1.35648767e+00  1.39404645e+00  1.51939060e+00
[...]
  4.64066884e+00  4.66279001e+00  4.68139053e+00  4.70260281e+00
  5.15613887e+00  5.38702522e+00  5.44388379e+00  5.56141482e+00
  6.01724096e+00  6.01821020e+00  6.08177727e+00  6.10105757e+00
  6.11632483e+00  6.43332660e+00  6.43659954e+00  6.48689999e+00
  6.50196358e+00  6.51169590e+00  6.51249332e+00  6.51723594e+00
  6.55359150e+00  6.55612369e+00  6.56136130e+00  6.57359001e+00
  6.58505126e+00  6.60434077e+00  6.61541155e+00  6.62585620e+00]
multiplicity <S^2> = 90.000125  2S+1 = 19.000013
nelec by numeric integration = [144.0002086  126.00015974]
    CPU time for vxc    112.18 sec, wall time      3.83 sec
E1 = -20300.26081672875  Ecoul = 7669.824581707497  Exc = -435.6572107641881
cycle= 354 E= -8028.02682677389  delta_E=  143  |g|= 13.6  |ddm|= 27.7
    CPU time for cycle= 354    115.40 sec, wall time      3.92 sec
diis-norm(errvec)=19.2119
diis-c [-8.96928227  0.9298441   0.11629875  3.60708422 -3.74982542  1.71487563
 -0.63961078 -2.28438482  1.30571831]
  alpha nocc = 144  HOMO = 4.47232956778503  LUMO = 4.51264108379097
  beta  nocc = 126  HOMO = 3.36212474704376  LUMO = 3.44197266951594

WARN: system HOMO 4.49171839909041 >= system LUMO 3.44197266951594

  alpha mo_energy =
[-2.47078160e+02 -2.46720615e+02 -2.46709103e+02 -2.46655674e+02
 -8.91292419e+01 -8.76052131e+01 -8.69824510e+01 -8.69800345e+01
 -8.38518386e+01 -8.35614801e+01 -8.32641799e+01 -8.25714361e+01
 -2.26972886e+01 -2.23151457e+01 -2.22913539e+01 -2.22414083e+01
 -1.85969602e+01 -1.85949189e+01 -1.85910831e+01 -1.82181234e+01
 -1.82168026e+01 -1.82113904e+01 -1.81946924e+01 -1.81935845e+01
 -1.81894048e+01 -1.81443793e+01 -1.81433641e+01 -1.81393796e+01
 -1.29140273e+01 -1.23690439e+01 -1.22433600e+01 -1.21354281e+01
 -9.06061360e+00 -7.67514762e+00 -7.09964441e+00 -7.09554169e+00
 -6.99968686e+00 -6.98966027e+00 -6.95115949e+00 -5.60391570e+00
 -5.59178260e+00 -5.56109440e+00 -5.04182669e+00 -5.03917746e+00
 -5.02959941e+00 -5.02668752e+00 -5.00338718e+00 -5.00109529e+00
 -4.15008100e+00 -3.89897189e+00 -3.63169699e+00 -2.96608731e+00
 -2.62918035e+00 -2.26564167e+00 -2.20545304e+00 -2.15097080e+00
 -2.06766398e+00 -2.06500399e+00 -2.04848351e+00 -2.04726470e+00
 -2.00446904e+00 -1.96198216e+00 -1.80789594e+00 -1.79155254e+00
 -1.75628556e+00 -1.72747529e+00 -1.67512705e+00 -1.62071930e+00
 -1.61727212e+00 -1.57036340e+00 -1.53088567e+00 -1.52840813e+00
 -1.51004170e+00 -1.49368161e+00 -1.46987641e+00 -1.46662572e+00
 -1.36757007e+00 -1.34447709e+00 -1.24393885e+00 -9.64666254e-01
 -9.59850777e-01 -8.91539980e-01 -8.87350763e-01 -8.84472092e-01
 -8.79923845e-01 -8.54381130e-01 -8.40302181e-01 -8.28364964e-01
 -7.96054112e-01 -7.78979504e-01 -5.67809881e-01 -5.66834423e-01
 -5.07205762e-01 -4.50472708e-01 -4.44245158e-01 -3.93353248e-01
 -3.78282402e-01 -3.49104807e-01 -3.31198960e-01  6.67485759e-02
  9.40651079e-02  4.30481627e-01  4.34711151e-01  4.57275847e-01
  4.58735259e-01  6.75478755e-01  9.93198452e-01  1.00764182e+00
  1.85234346e+00  1.97848947e+00  2.07771112e+00  2.18331455e+00
  2.69287350e+00  2.78693514e+00  2.81523071e+00  2.83048913e+00
  2.83349996e+00  2.87793876e+00  2.95051371e+00  2.96443252e+00
  3.00987517e+00  3.06780041e+00  3.11326230e+00  3.24970810e+00
  3.28378990e+00  3.34330611e+00  3.42305236e+00  3.44745959e+00
  3.45547291e+00  3.53607699e+00  3.58253454e+00  3.62918774e+00
  3.63935537e+00  3.72316310e+00  3.74105906e+00  3.78589971e+00
  3.83268820e+00  3.89118755e+00  4.03238354e+00  4.08834292e+00
  4.16644124e+00  4.19542137e+00  4.42685603e+00  4.47232957e+00
  4.51264108e+00  4.59602217e+00  4.62950813e+00  4.65364693e+00
  4.69412838e+00  4.71579038e+00  4.73723165e+00  4.75786767e+00
  5.19141724e+00  5.43648350e+00  5.49218448e+00  5.61271263e+00
  6.05739551e+00  6.05837626e+00  6.12568168e+00  6.14535831e+00
  6.16252532e+00  6.50477192e+00  6.50667557e+00  6.55716020e+00
  6.56629249e+00  6.56792155e+00  6.57115322e+00  6.58467303e+00
  6.61098539e+00  6.61337306e+00  6.61977544e+00  6.63211696e+00
  6.64438652e+00  6.66537360e+00  6.67597033e+00  6.68760804e+00]
  beta  mo_energy =
[-2.47075209e+02 -2.46719086e+02 -2.46707375e+02 -2.46654357e+02
 -8.91217789e+01 -8.75877065e+01 -8.69597719e+01 -8.69574395e+01
 -8.38408549e+01 -8.35535050e+01 -8.32585452e+01 -8.25701939e+01
 -2.26939066e+01 -2.23131415e+01 -2.22891061e+01 -2.22396943e+01
 -1.85926139e+01 -1.85907066e+01 -1.85876486e+01 -1.82165577e+01
 -1.82152687e+01 -1.82086154e+01 -1.81928137e+01 -1.81917302e+01
 -1.81872843e+01 -1.81429495e+01 -1.81419389e+01 -1.81377831e+01
 -1.29139537e+01 -1.23690491e+01 -1.22433375e+01 -1.21353691e+01
 -9.05303760e+00 -7.65349266e+00 -7.06943994e+00 -7.06544255e+00
 -6.99101815e+00 -6.98133868e+00 -6.93473340e+00 -5.57658984e+00
 -5.56232882e+00 -5.53306141e+00 -5.00725109e+00 -5.00476961e+00
 -4.99571930e+00 -4.99288083e+00 -4.96650642e+00 -4.96434606e+00
 -4.13385362e+00 -3.88679979e+00 -3.62270197e+00 -2.96449971e+00
 -2.63170974e+00 -2.26640414e+00 -2.20926348e+00 -2.15497146e+00
 -2.07203362e+00 -2.04628311e+00 -2.04324224e+00 -2.03478758e+00
 -1.98946513e+00 -1.96724782e+00 -1.79346880e+00 -1.78466767e+00
 -1.74345030e+00 -1.72596239e+00 -1.68060094e+00 -1.61008942e+00
 -1.60639464e+00 -1.57501438e+00 -1.52485518e+00 -1.52265520e+00
 -1.50015098e+00 -1.48276933e+00 -1.47082460e+00 -1.46178385e+00
 -1.36708184e+00 -1.32158855e+00 -1.22006395e+00 -9.67200072e-01
 -9.49146462e-01 -8.85166309e-01 -8.82235734e-01 -8.81519638e-01
 -8.78230710e-01 -8.52661009e-01 -7.97000901e-01 -7.55168820e-01
 -7.44554437e-01 -6.59954906e-01 -5.69949619e-01 -5.68944940e-01
 -5.05959553e-01 -4.50505591e-01 -4.44808178e-01 -3.32171165e-01
 -1.88582273e-01 -1.73038802e-01 -1.69739963e-01  2.68930412e-01
  2.92514750e-01  6.54801136e-01  6.58723553e-01  6.78626584e-01
  6.79806813e-01  8.95076310e-01  1.22827775e+00  1.24175777e+00
  1.99057364e+00  2.07846261e+00  2.13956786e+00  2.27561583e+00
  2.70583660e+00  2.80159153e+00  2.82767734e+00  2.85252086e+00
  2.86059066e+00  2.94190841e+00  3.00939024e+00  3.01541098e+00
  3.04535190e+00  3.11165787e+00  3.16234685e+00  3.27746942e+00
  3.31492861e+00  3.36212475e+00  3.44197267e+00  3.46061618e+00
  3.46828881e+00  3.54672358e+00  3.59355239e+00  3.64135985e+00
  3.65173328e+00  3.73646116e+00  3.78058773e+00  3.79804729e+00
  3.84488396e+00  3.92145309e+00  4.05327115e+00  4.11008052e+00
  4.19044482e+00  4.21886982e+00  4.44494749e+00  4.49171840e+00
  4.52956263e+00  4.61236450e+00  4.64696515e+00  4.67317108e+00
  4.71507135e+00  4.73648470e+00  4.75506275e+00  4.77585248e+00
  5.20865212e+00  5.44996342e+00  5.50480057e+00  5.62157282e+00
  6.07825814e+00  6.07928030e+00  6.14501592e+00  6.16434688e+00
  6.18049970e+00  6.52194052e+00  6.52468583e+00  6.57749875e+00
  6.58673818e+00  6.58842670e+00  6.59331679e+00  6.60623389e+00
  6.62851437e+00  6.63094268e+00  6.63816434e+00  6.65063383e+00
  6.66245825e+00  6.68058815e+00  6.69156116e+00  6.70233483e+00]
multiplicity <S^2> = 90.000113  2S+1 = 19.000012
nelec by numeric integration = [144.00020945 126.00016255]
    CPU time for vxc    115.94 sec, wall time      3.90 sec
E1 = -20293.732315362253  Ecoul = 7666.23821779245  Exc = -435.52726914908436
cycle= 355 E= -8024.95474770734  delta_E= 3.07  |g|= 13.4  |ddm|= 0.513
    CPU time for cycle= 355    119.82 sec, wall time      4.00 sec
diis-norm(errvec)=18.9029
diis-c [-9.28755115  0.95739012  0.16921498 -0.05784257  0.04851737 -0.46826444
  1.03054013 -0.62286648 -0.05668911]
  alpha nocc = 144  HOMO = 4.93415282828156  LUMO = 5.01493803041229
  beta  nocc = 126  HOMO = 3.6758365178807  LUMO = 3.780110438371

WARN: system HOMO 4.94487912089751 >= system LUMO 3.780110438371

  alpha mo_energy =
[-2.46512869e+02 -2.46033699e+02 -2.45945725e+02 -2.45906350e+02
 -8.92295257e+01 -8.76430972e+01 -8.69938832e+01 -8.69897136e+01
 -8.36838205e+01 -8.33823462e+01 -8.30591773e+01 -8.23025055e+01
 -2.21521549e+01 -2.16576242e+01 -2.15643445e+01 -2.15263467e+01
 -1.80484474e+01 -1.80463280e+01 -1.80412332e+01 -1.75568336e+01
 -1.75554732e+01 -1.75500004e+01 -1.74638538e+01 -1.74626601e+01
 -1.74578213e+01 -1.74254999e+01 -1.74244248e+01 -1.74198230e+01
 -1.31385471e+01 -1.25657664e+01 -1.24373917e+01 -1.23209444e+01
 -9.14994329e+00 -7.70656268e+00 -7.10550405e+00 -7.09950665e+00
 -7.08705443e+00 -7.07665282e+00 -7.03473134e+00 -5.63253909e+00
 -5.62007401e+00 -5.58572670e+00 -5.04590454e+00 -5.04155352e+00
 -5.03325852e+00 -5.02860183e+00 -5.00385166e+00 -4.99987625e+00
 -3.98642104e+00 -3.72561202e+00 -3.43449647e+00 -2.78316451e+00
 -2.70823078e+00 -2.41336674e+00 -2.35365560e+00 -2.28193670e+00
 -2.19820377e+00 -2.17738960e+00 -2.08432687e+00 -1.89612928e+00
 -1.87906234e+00 -1.84916195e+00 -1.82767083e+00 -1.79505049e+00
 -1.73519443e+00 -1.70687328e+00 -1.68659330e+00 -1.62906814e+00
 -1.62026864e+00 -1.61218053e+00 -1.57510816e+00 -1.57013447e+00
 -1.56718866e+00 -1.48985272e+00 -1.44031856e+00 -1.33128342e+00
 -1.32750827e+00 -1.32464640e+00 -1.28317431e+00 -1.06830237e+00
 -1.05429443e+00 -9.82190760e-01 -9.82049032e-01 -8.92126408e-01
 -8.86637199e-01 -8.81299756e-01 -8.24115160e-01 -6.46322479e-01
 -6.44539798e-01 -6.25169780e-01 -6.22197137e-01 -5.87396616e-01
 -5.85103998e-01 -5.20970870e-01 -5.13593747e-01 -4.21523996e-01
 -4.11615354e-01 -3.87519421e-01 -3.57778097e-01  6.53855474e-02
  8.89847512e-02  4.47485693e-01  4.53276290e-01  4.71482308e-01
  4.73569435e-01  7.19554608e-01  1.05903579e+00  1.07334368e+00
  1.96232799e+00  2.09505516e+00  2.23639210e+00  2.31903722e+00
  2.91185159e+00  2.99661712e+00  3.01396312e+00  3.05170917e+00
  3.09011183e+00  3.11476087e+00  3.14853433e+00  3.19775313e+00
  3.24603974e+00  3.24916193e+00  3.29978254e+00  3.44563134e+00
  3.48144136e+00  3.66983820e+00  3.77225321e+00  3.79337723e+00
  3.84182143e+00  3.85360951e+00  3.87826480e+00  3.95987822e+00
  3.97793932e+00  3.98352214e+00  3.99999156e+00  4.03612809e+00
  4.08203192e+00  4.14494444e+00  4.33178586e+00  4.47430220e+00
  4.58139659e+00  4.60835699e+00  4.76645711e+00  4.93415283e+00
  5.01493803e+00  5.10627941e+00  5.13191017e+00  5.15348219e+00
  5.24356026e+00  5.26202542e+00  5.27937517e+00  5.29737471e+00
  5.55312986e+00  5.85002726e+00  5.91732814e+00  6.04124882e+00
  6.48034099e+00  6.48147296e+00  6.56219088e+00  6.58291653e+00
  6.60558758e+00  7.00850346e+00  7.01029160e+00  7.07039512e+00
  7.08399362e+00  7.10147647e+00  7.11719447e+00  7.11913195e+00
  7.15459055e+00  7.15712444e+00  7.17670766e+00  7.18978064e+00
  7.20504707e+00  7.21650730e+00  7.22771182e+00  7.24222995e+00]
  beta  mo_energy =
[-2.46510832e+02 -2.46032715e+02 -2.45944664e+02 -2.45905427e+02
 -8.92218423e+01 -8.76250713e+01 -8.69705321e+01 -8.69664492e+01
 -8.36726925e+01 -8.33743255e+01 -8.30536441e+01 -8.23017656e+01
 -2.21498719e+01 -2.16563686e+01 -2.15629880e+01 -2.15251742e+01
 -1.80455712e+01 -1.80435943e+01 -1.80388031e+01 -1.75558324e+01
 -1.75544696e+01 -1.75483402e+01 -1.74627145e+01 -1.74615198e+01
 -1.74564588e+01 -1.74244878e+01 -1.74234080e+01 -1.74186941e+01
 -1.31384713e+01 -1.25657714e+01 -1.24373671e+01 -1.23208829e+01
 -9.14226160e+00 -7.68440030e+00 -7.07815046e+00 -7.07443595e+00
 -7.06854873e+00 -7.06809457e+00 -7.01771689e+00 -5.60427994e+00
 -5.58976776e+00 -5.55690064e+00 -5.01032435e+00 -5.00614536e+00
 -4.99839689e+00 -4.99381529e+00 -4.96587083e+00 -4.96203174e+00
 -3.96971930e+00 -3.71309056e+00 -3.42534217e+00 -2.78586338e+00
 -2.70727624e+00 -2.41459932e+00 -2.35772070e+00 -2.28608292e+00
 -2.20275153e+00 -2.17528719e+00 -2.08986971e+00 -1.87532317e+00
 -1.86513487e+00 -1.84812389e+00 -1.81282743e+00 -1.80076702e+00
 -1.72794545e+00 -1.69189352e+00 -1.69146661e+00 -1.61439640e+00
 -1.61026406e+00 -1.60526304e+00 -1.57958261e+00 -1.56059387e+00
 -1.55668393e+00 -1.48931256e+00 -1.41824536e+00 -1.32197999e+00
 -1.31935528e+00 -1.30765187e+00 -1.27258723e+00 -1.07090082e+00
 -1.04413575e+00 -9.83768031e-01 -9.71656750e-01 -8.92977189e-01
 -7.97924690e-01 -7.91640317e-01 -7.01480982e-01 -6.48482710e-01
 -6.46468240e-01 -6.23812737e-01 -6.20845901e-01 -5.86401089e-01
 -5.84508587e-01 -5.21158191e-01 -5.14422138e-01 -3.96451424e-01
 -2.08804971e-01 -1.87379348e-01 -1.75988810e-01  2.73687386e-01
  2.93999339e-01  6.78550113e-01  6.84050038e-01  6.99854686e-01
  7.01640339e-01  9.46561330e-01  1.30192842e+00  1.31504532e+00
  2.10482782e+00  2.20492875e+00  2.29703083e+00  2.41284428e+00
  2.92353207e+00  3.00284479e+00  3.05637352e+00  3.08490949e+00
  3.12556201e+00  3.16266640e+00  3.19749285e+00  3.23757259e+00
  3.27072758e+00  3.28921348e+00  3.34642404e+00  3.47391603e+00
  3.51185338e+00  3.67583652e+00  3.78011044e+00  3.80181726e+00
  3.85001002e+00  3.86263706e+00  3.88734314e+00  3.97023872e+00
  3.98706288e+00  4.00782453e+00  4.02182976e+00  4.04459760e+00
  4.09022635e+00  4.17238115e+00  4.35038929e+00  4.48795424e+00
  4.59708119e+00  4.62356536e+00  4.77627332e+00  4.94487912e+00
  5.02449501e+00  5.11527275e+00  5.14060982e+00  5.16278402e+00
  5.25432038e+00  5.27286159e+00  5.28884084e+00  5.30697602e+00
  5.56735183e+00  5.85961135e+00  5.92657449e+00  6.04803770e+00
  6.49343927e+00  6.49461480e+00  6.57483647e+00  6.59519877e+00
  6.61749006e+00  7.01667731e+00  7.01850977e+00  7.08065736e+00
  7.09481709e+00  7.11216277e+00  7.12717520e+00  7.12914608e+00
  7.16337529e+00  7.16590782e+00  7.18641909e+00  7.19957920e+00
  7.21457619e+00  7.22483478e+00  7.23608285e+00  7.25031848e+00]
multiplicity <S^2> = 90.000081  2S+1 = 19.000008
nelec by numeric integration = [144.00021232 126.00017091]
    CPU time for vxc    114.56 sec, wall time      3.89 sec
E1 = -20256.804409364988  Ecoul = 7645.0634259163135  Exc = -434.745091366551
cycle= 356 E= -8008.41945580368  delta_E= 16.5  |g|=   12  |ddm|= 2.83
    CPU time for cycle= 356    119.46 sec, wall time      4.02 sec
diis-norm(errvec)=16.9102
diis-c [-9.24315973  0.95349614  0.16488303 -0.08266147  0.05819327 -0.48532393
  1.00815591 -0.51933575 -0.0974072 ]
  alpha nocc = 144  HOMO = 4.86458739337323  LUMO = 4.94422477872426
  beta  nocc = 126  HOMO = 3.64008900334843  LUMO = 3.73721468493408

WARN: system HOMO 4.87750019499021 >= system LUMO 3.73721468493408

  alpha mo_energy =
[-2.46593394e+02 -2.46140947e+02 -2.46054959e+02 -2.46017823e+02
 -8.92153022e+01 -8.76380175e+01 -8.69925973e+01 -8.69882643e+01
 -8.37078855e+01 -8.34076045e+01 -8.30868336e+01 -8.23395769e+01
 -2.22297413e+01 -2.17592951e+01 -2.16682614e+01 -2.16323036e+01
 -1.81265373e+01 -1.81244335e+01 -1.81195279e+01 -1.76590776e+01
 -1.76577416e+01 -1.76523053e+01 -1.75683257e+01 -1.75671468e+01
 -1.75624194e+01 -1.75320234e+01 -1.75309590e+01 -1.75264722e+01
 -1.31067658e+01 -1.25381629e+01 -1.24101264e+01 -1.22947053e+01
 -9.13725953e+00 -7.70238260e+00 -7.10499279e+00 -7.09885889e+00
 -7.07465774e+00 -7.06430797e+00 -7.02287863e+00 -5.62876146e+00
 -5.61634891e+00 -5.58254513e+00 -5.04565949e+00 -5.04113885e+00
 -5.03307204e+00 -5.02825248e+00 -5.00413808e+00 -4.99997738e+00
 -4.00985788e+00 -3.75005807e+00 -3.46120595e+00 -2.76131700e+00
 -2.74392470e+00 -2.39237946e+00 -2.33263086e+00 -2.26353756e+00
 -2.17982588e+00 -2.15893516e+00 -2.06698954e+00 -1.92031277e+00
 -1.90334248e+00 -1.85302965e+00 -1.83211375e+00 -1.77826305e+00
 -1.71864416e+00 -1.69469463e+00 -1.67027968e+00 -1.65431805e+00
 -1.63749521e+00 -1.60464440e+00 -1.59606687e+00 -1.55972462e+00
 -1.55408877e+00 -1.47256587e+00 -1.42696519e+00 -1.35546897e+00
 -1.35238341e+00 -1.31856338e+00 -1.31172308e+00 -1.05380772e+00
 -1.04087948e+00 -9.69042275e-01 -9.67834503e-01 -8.80119012e-01
 -8.78558072e-01 -8.74021326e-01 -8.17951353e-01 -6.61504370e-01
 -6.58520277e-01 -6.35248050e-01 -6.33881024e-01 -6.24279428e-01
 -5.74265352e-01 -5.11058588e-01 -5.03963707e-01 -4.17810285e-01
 -4.05719485e-01 -3.80753251e-01 -3.56524749e-01  6.53284753e-02
  8.94441986e-02  4.44784109e-01  4.50711147e-01  4.69222255e-01
  4.71449561e-01  7.12937833e-01  1.04976714e+00  1.06362457e+00
  1.94654739e+00  2.07874830e+00  2.21510104e+00  2.30054801e+00
  2.88181121e+00  2.96973348e+00  2.98838547e+00  3.02070011e+00
  3.06041840e+00  3.08343867e+00  3.11912149e+00  3.17005840e+00
  3.20050688e+00  3.22154861e+00  3.27295171e+00  3.41897969e+00
  3.45452755e+00  3.63368726e+00  3.72728370e+00  3.74692317e+00
  3.78991361e+00  3.80352109e+00  3.83477310e+00  3.90069232e+00
  3.92071124e+00  3.94737813e+00  3.96011923e+00  3.99575471e+00
  4.04649629e+00  4.10887199e+00  4.29288833e+00  4.41653228e+00
  4.52207521e+00  4.54929179e+00  4.72099063e+00  4.86458739e+00
  4.94422478e+00  5.03161136e+00  5.05526861e+00  5.07706082e+00
  5.16466760e+00  5.18337846e+00  5.19908995e+00  5.21732003e+00
  5.50088452e+00  5.78832709e+00  5.85466441e+00  5.97862028e+00
  6.42014884e+00  6.42125833e+00  6.49996526e+00  6.52056154e+00
  6.54239799e+00  6.93243341e+00  6.93423336e+00  6.99297276e+00
  7.00639214e+00  7.02340274e+00  7.03883334e+00  7.04077865e+00
  7.07476311e+00  7.07732765e+00  7.09723886e+00  7.11022250e+00
  7.12492382e+00  7.13577997e+00  7.14688390e+00  7.16085501e+00]
  beta  mo_energy =
[-2.46591228e+02 -2.46139746e+02 -2.46053800e+02 -2.46016793e+02
 -8.92076499e+01 -8.76200649e+01 -8.69693414e+01 -8.69650947e+01
 -8.36967786e+01 -8.33995943e+01 -8.30813015e+01 -8.23387495e+01
 -2.22273013e+01 -2.17577510e+01 -2.16667736e+01 -2.16309872e+01
 -1.81234512e+01 -1.81214864e+01 -1.81169589e+01 -1.76578452e+01
 -1.76565084e+01 -1.76503443e+01 -1.75670760e+01 -1.75658992e+01
 -1.75609609e+01 -1.75308920e+01 -1.75298253e+01 -1.75252402e+01
 -1.31066904e+01 -1.25381679e+01 -1.24101021e+01 -1.22946442e+01
 -9.12959248e+00 -7.68029134e+00 -7.07404689e+00 -7.06802246e+00
 -7.06578665e+00 -7.05578352e+00 -7.00594775e+00 -5.60063291e+00
 -5.58616294e+00 -5.55383291e+00 -5.01022142e+00 -5.00587232e+00
 -4.99834930e+00 -4.99360456e+00 -4.96631339e+00 -4.96228798e+00
 -3.99322481e+00 -3.73759303e+00 -3.45209570e+00 -2.76399275e+00
 -2.74286596e+00 -2.39355069e+00 -2.33666057e+00 -2.26766426e+00
 -2.18434952e+00 -2.15679289e+00 -2.07249451e+00 -1.89956858e+00
 -1.88944857e+00 -1.83816572e+00 -1.83101138e+00 -1.78394656e+00
 -1.71140240e+00 -1.67980669e+00 -1.67512135e+00 -1.63968653e+00
 -1.63059601e+00 -1.59465642e+00 -1.58343262e+00 -1.56416012e+00
 -1.54655885e+00 -1.47203406e+00 -1.40478783e+00 -1.34950251e+00
 -1.34691848e+00 -1.30141683e+00 -1.29513140e+00 -1.05639765e+00
 -1.03068746e+00 -9.69457237e-01 -9.58400682e-01 -8.79426297e-01
 -7.91855330e-01 -7.84998457e-01 -6.95799210e-01 -6.60006901e-01
 -6.57029197e-01 -6.37401137e-01 -6.35861364e-01 -6.23109347e-01
 -5.73633304e-01 -5.11237995e-01 -5.04761044e-01 -3.87398503e-01
 -2.06183344e-01 -1.84839251e-01 -1.75541261e-01  2.72767334e-01
  2.93539693e-01  6.74892339e-01  6.80532697e-01  6.96603897e-01
  6.98535850e-01  9.38895891e-01  1.29157670e+00  1.30423879e+00
  2.08844761e+00  2.18767254e+00  2.27545038e+00  2.39412857e+00
  2.89348231e+00  2.97629888e+00  3.02496213e+00  3.05464088e+00
  3.09642396e+00  3.13165227e+00  3.17039963e+00  3.20776470e+00
  3.22722682e+00  3.26418724e+00  3.32009384e+00  3.44714985e+00
  3.48490763e+00  3.64008900e+00  3.73721468e+00  3.75576661e+00
  3.79960571e+00  3.81333001e+00  3.84438906e+00  3.91178410e+00
  3.93072344e+00  3.96775360e+00  3.98696374e+00  4.00479175e+00
  4.05522765e+00  4.13672500e+00  4.31187011e+00  4.43109954e+00
  4.53899195e+00  4.56572765e+00  4.73194023e+00  4.87750019e+00
  4.95482031e+00  5.04180524e+00  5.06649097e+00  5.08902786e+00
  5.17700554e+00  5.19576003e+00  5.21026748e+00  5.22861527e+00
  5.51560552e+00  5.79875117e+00  5.86441452e+00  5.98573706e+00
  6.43440988e+00  6.43556000e+00  6.51358971e+00  6.53383027e+00
  6.55517749e+00  6.94299570e+00  6.94489156e+00  7.00571752e+00
  7.01990062e+00  7.03662583e+00  7.05034112e+00  7.05235444e+00
  7.08519722e+00  7.08776753e+00  7.10814560e+00  7.12123394e+00
  7.13558581e+00  7.14539742e+00  7.15654770e+00  7.17013588e+00]
multiplicity <S^2> = 90.000084  2S+1 = 19.000009
