[Molden Format]
made by pyscf v[2.4.0]
[Atoms] (AU)
Fe   1   26     9.86437037022962     1.98421243079332   -15.02332269029224
S   2   16     7.29434284082114    -0.52912331487822   -17.12091868855946
S   3   16     9.44863062282531     1.79523981833681   -10.69584986503825
S   4   16     9.01399361417534     6.00932907611690   -16.51620632869864
S   5   16    13.66271988060540     0.52912331487822   -15.83590492385522
Fe   6   26    11.11158961244256    -1.98421243079332   -17.93350092212244
S   7   16    11.52732935984688    -1.79523981833681   -22.27987100862208
S   8   16    11.96196636849684    -6.00932907611690   -16.45951454496169
C   9   6    11.33835674739037     8.20141138061237   -15.43906243769655
H   10   1    12.20763076469030     9.08958265915795   -17.02643238233121
H   11   1    10.45018546884479     9.59980871279051   -14.26743224046622
H   12   1    12.73675407956852     7.21875379583854   -14.36191854669447
C   13   6     6.29278799480166     2.47554122318023    -9.78878132524702
H   14   1     5.12115779757132     0.86927401729993   -10.14782928891438
H   15   1     6.23609621106470     2.91017823183020    -7.80456889445371
H   16   1     5.61248658995823     4.06291116781488   -10.82813069375780
C   17   6     9.63760323528181    -8.20141138061237   -17.53665843596377
H   18   1    10.50687725258174    -9.54311692905356   -18.76498041693106
H   19   1     8.82502100171884    -9.14627444289490   -15.94928849132912
H   20   1     8.20141138061237    -7.19985653459289   -18.53821328198326
C   21   6    14.68317198787053    -2.47554122318023   -23.18693954841331
H   22   1    14.81545281659008    -2.55113026816283   -25.20894650169792
H   23   1    15.91149396883782    -1.02045210726513   -22.48774088232424
H   24   1    15.23119256399440    -4.25188378027139   -22.41215183734163
[GTO]
1 0
 s    6 1.00
       489363.91999756   0.003350001379677
        76936.88249538   0.010014735201831
        19111.87896905   0.029489541326053
         5953.14711781   0.083206542360293
         2026.23124631    0.25505082434793
          720.41679911    0.71419663548118
 s    2 1.00
          109.11058782    0.74093523374345
           46.72162464    0.28463634357546
 s    2 1.00
            2.44747866    0.38985772703801
             1.1660482    0.63355089030013
 s    1 1.00
          270.92857792                   1
 s    1 1.00
           17.32120133                   1
 s    1 1.00
            7.50518249                   1
 s    1 1.00
            0.53243004                   1
 s    1 1.00
            0.11921823                   1
 s    1 1.00
            0.04225089                   1
 p    5 1.00
         4524.59978956  0.0028146526066035
         1117.10671951   0.015786411749766
          383.18041997   0.070309713574534
          150.91292643    0.25732484525004
           63.20731062    0.74016694058612
 p    2 1.00
           27.51598778    0.50655350945781
           12.38754653    0.54061897628066
 p    3 1.00
            2.50956697    0.52194043612711
            1.07890467    0.50540565320498
            0.43388971   0.037298440805319
 p    1 1.00
            5.64019838                   1
 p    1 1.00
              0.819521                   1
 p    1 1.00
            0.42475725                   1
 d    4 1.00
           57.37689087   0.021868805390254
            16.5000892    0.12813186610507
            5.79890555     0.3863088025741
            2.17706897    0.63484874555344
 d    1 1.00
            0.79292368                   1
 d    1 1.00
            0.26063792                   1
 f    1 1.00
            3.44034529                   1
 f    1 1.00
            0.84589748                   1
 g    1 1.00
            2.25265017                   1

2 0
 s    5 1.00
       131334.98114592   0.004900029954672
        20181.90041917   0.018510718616524
         4835.70463137   0.066508300963639
          1439.7381539    0.23442745803641
          476.15426264    0.75920319935527
 s    2 1.00
            3.37495581    -0.6585952448555
            1.51749916   -0.36774281304806
 s    1 1.00
          168.68252004                   1
 s    1 1.00
           62.92253974                   1
 s    1 1.00
           24.33329987                   1
 s    1 1.00
            6.86573753                   1
 s    1 1.00
            0.44651463                   1
 s    1 1.00
            0.16174242                   1
 p    6 1.00
           754.1523594  0.0018880392695063
          193.63344693   0.012415787013658
           64.14106193   0.058846979762122
           23.75714449    0.19568881772651
            9.45234322    0.40880788238935
            3.93996824    0.48080058752795
 p    1 1.00
            1.72080555                   1
 p    1 1.00
            0.77076298                   1
 p    1 1.00
            0.28737379                   1
 p    1 1.00
             0.1011323                   1
 d    1 1.00
              0.264839                   1
 d    1 1.00
              0.781337                   1
 f    1 1.00
               0.58379                   1

3 0
 s    5 1.00
       131334.98114592   0.004900029954672
        20181.90041917   0.018510718616524
         4835.70463137   0.066508300963639
          1439.7381539    0.23442745803641
          476.15426264    0.75920319935527
 s    2 1.00
            3.37495581    -0.6585952448555
            1.51749916   -0.36774281304806
 s    1 1.00
          168.68252004                   1
 s    1 1.00
           62.92253974                   1
 s    1 1.00
           24.33329987                   1
 s    1 1.00
            6.86573753                   1
 s    1 1.00
            0.44651463                   1
 s    1 1.00
            0.16174242                   1
 p    6 1.00
           754.1523594  0.0018880392695063
          193.63344693   0.012415787013658
           64.14106193   0.058846979762122
           23.75714449    0.19568881772651
            9.45234322    0.40880788238935
            3.93996824    0.48080058752795
 p    1 1.00
            1.72080555                   1
 p    1 1.00
            0.77076298                   1
 p    1 1.00
            0.28737379                   1
 p    1 1.00
             0.1011323                   1
 d    1 1.00
              0.264839                   1
 d    1 1.00
              0.781337                   1
 f    1 1.00
               0.58379                   1

4 0
 s    5 1.00
       131334.98114592   0.004900029954672
        20181.90041917   0.018510718616524
         4835.70463137   0.066508300963639
          1439.7381539    0.23442745803641
          476.15426264    0.75920319935527
 s    2 1.00
            3.37495581    -0.6585952448555
            1.51749916   -0.36774281304806
 s    1 1.00
          168.68252004                   1
 s    1 1.00
           62.92253974                   1
 s    1 1.00
           24.33329987                   1
 s    1 1.00
            6.86573753                   1
 s    1 1.00
            0.44651463                   1
 s    1 1.00
            0.16174242                   1
 p    6 1.00
           754.1523594  0.0018880392695063
          193.63344693   0.012415787013658
           64.14106193   0.058846979762122
           23.75714449    0.19568881772651
            9.45234322    0.40880788238935
            3.93996824    0.48080058752795
 p    1 1.00
            1.72080555                   1
 p    1 1.00
            0.77076298                   1
 p    1 1.00
            0.28737379                   1
 p    1 1.00
             0.1011323                   1
 d    1 1.00
              0.264839                   1
 d    1 1.00
              0.781337                   1
 f    1 1.00
               0.58379                   1

5 0
 s    5 1.00
       131334.98114592   0.004900029954672
        20181.90041917   0.018510718616524
         4835.70463137   0.066508300963639
          1439.7381539    0.23442745803641
          476.15426264    0.75920319935527
 s    2 1.00
            3.37495581    -0.6585952448555
            1.51749916   -0.36774281304806
 s    1 1.00
          168.68252004                   1
 s    1 1.00
           62.92253974                   1
 s    1 1.00
           24.33329987                   1
 s    1 1.00
            6.86573753                   1
 s    1 1.00
            0.44651463                   1
 s    1 1.00
            0.16174242                   1
 p    6 1.00
           754.1523594  0.0018880392695063
          193.63344693   0.012415787013658
           64.14106193   0.058846979762122
           23.75714449    0.19568881772651
            9.45234322    0.40880788238935
            3.93996824    0.48080058752795
 p    1 1.00
            1.72080555                   1
 p    1 1.00
            0.77076298                   1
 p    1 1.00
            0.28737379                   1
 p    1 1.00
             0.1011323                   1
 d    1 1.00
              0.264839                   1
 d    1 1.00
              0.781337                   1
 f    1 1.00
               0.58379                   1

6 0
 s    6 1.00
       489363.91999756   0.003350001379677
        76936.88249538   0.010014735201831
        19111.87896905   0.029489541326053
         5953.14711781   0.083206542360293
         2026.23124631    0.25505082434793
          720.41679911    0.71419663548118
 s    2 1.00
          109.11058782    0.74093523374345
           46.72162464    0.28463634357546
 s    2 1.00
            2.44747866    0.38985772703801
             1.1660482    0.63355089030013
 s    1 1.00
          270.92857792                   1
 s    1 1.00
           17.32120133                   1
 s    1 1.00
            7.50518249                   1
 s    1 1.00
            0.53243004                   1
 s    1 1.00
            0.11921823                   1
 s    1 1.00
            0.04225089                   1
 p    5 1.00
         4524.59978956  0.0028146526066035
         1117.10671951   0.015786411749766
          383.18041997   0.070309713574534
          150.91292643    0.25732484525004
           63.20731062    0.74016694058612
 p    2 1.00
           27.51598778    0.50655350945781
           12.38754653    0.54061897628066
 p    3 1.00
            2.50956697    0.52194043612711
            1.07890467    0.50540565320498
            0.43388971   0.037298440805319
 p    1 1.00
            5.64019838                   1
 p    1 1.00
              0.819521                   1
 p    1 1.00
            0.42475725                   1
 d    4 1.00
           57.37689087   0.021868805390254
            16.5000892    0.12813186610507
            5.79890555     0.3863088025741
            2.17706897    0.63484874555344
 d    1 1.00
            0.79292368                   1
 d    1 1.00
            0.26063792                   1
 f    1 1.00
            3.44034529                   1
 f    1 1.00
            0.84589748                   1
 g    1 1.00
            2.25265017                   1

7 0
 s    5 1.00
       131334.98114592   0.004900029954672
        20181.90041917   0.018510718616524
         4835.70463137   0.066508300963639
          1439.7381539    0.23442745803641
          476.15426264    0.75920319935527
 s    2 1.00
            3.37495581    -0.6585952448555
            1.51749916   -0.36774281304806
 s    1 1.00
          168.68252004                   1
 s    1 1.00
           62.92253974                   1
 s    1 1.00
           24.33329987                   1
 s    1 1.00
            6.86573753                   1
 s    1 1.00
            0.44651463                   1
 s    1 1.00
            0.16174242                   1
 p    6 1.00
           754.1523594  0.0018880392695063
          193.63344693   0.012415787013658
           64.14106193   0.058846979762122
           23.75714449    0.19568881772651
            9.45234322    0.40880788238935
            3.93996824    0.48080058752795
 p    1 1.00
            1.72080555                   1
 p    1 1.00
            0.77076298                   1
 p    1 1.00
            0.28737379                   1
 p    1 1.00
             0.1011323                   1
 d    1 1.00
              0.264839                   1
 d    1 1.00
              0.781337                   1
 f    1 1.00
               0.58379                   1

8 0
 s    5 1.00
       131334.98114592   0.004900029954672
        20181.90041917   0.018510718616524
         4835.70463137   0.066508300963639
          1439.7381539    0.23442745803641
          476.15426264    0.75920319935527
 s    2 1.00
            3.37495581    -0.6585952448555
            1.51749916   -0.36774281304806
 s    1 1.00
          168.68252004                   1
 s    1 1.00
           62.92253974                   1
 s    1 1.00
           24.33329987                   1
 s    1 1.00
            6.86573753                   1
 s    1 1.00
            0.44651463                   1
 s    1 1.00
            0.16174242                   1
 p    6 1.00
           754.1523594  0.0018880392695063
          193.63344693   0.012415787013658
           64.14106193   0.058846979762122
           23.75714449    0.19568881772651
            9.45234322    0.40880788238935
            3.93996824    0.48080058752795
 p    1 1.00
            1.72080555                   1
 p    1 1.00
            0.77076298                   1
 p    1 1.00
            0.28737379                   1
 p    1 1.00
             0.1011323                   1
 d    1 1.00
              0.264839                   1
 d    1 1.00
              0.781337                   1
 f    1 1.00
               0.58379                   1

9 0
 s    5 1.00
          7615.0599911  0.0022244960654013
         1145.08684615   0.014140944039399
          261.91952431     0.0697499873722
           74.66834196     0.2637788237864
           24.40551202    0.73342883264723
 s    2 1.00
            8.68679013    0.58931282466157
            3.23657623    0.45281759130673
 s    1 1.00
            1.30179999                   1
 s    1 1.00
            0.52768873                   1
 s    1 1.00
            0.15694534                   1
 p    4 1.00
           34.50767936    0.01182072267457
            7.91304441    0.07777295570278
            2.36615458    0.31452402468813
            0.81172425    0.71532158178263
 p    1 1.00
            0.31228882                   1
 p    1 1.00
            0.11400266                   1
 d    1 1.00
              1.154049                   1
 d    1 1.00
             0.3511286                   1
 f    1 1.00
              0.819312                   1

10 0
 s    3 1.00
           34.87758369   0.024909420015424
            5.23397281    0.18219013687198
            1.18503342     0.8591140347034
 s    1 1.00
            0.32833943                   1
 s    1 1.00
            0.11031918                   1
 p    1 1.00
              0.718844                   1
 p    1 1.00
                  0.35                   1
 d    1 1.00
               1.07506                   1

11 0
 s    3 1.00
           34.87758369   0.024909420015424
            5.23397281    0.18219013687198
            1.18503342     0.8591140347034
 s    1 1.00
            0.32833943                   1
 s    1 1.00
            0.11031918                   1
 p    1 1.00
              0.718844                   1
 p    1 1.00
                  0.35                   1
 d    1 1.00
               1.07506                   1

12 0
 s    3 1.00
           34.87758369   0.024909420015424
            5.23397281    0.18219013687198
            1.18503342     0.8591140347034
 s    1 1.00
            0.32833943                   1
 s    1 1.00
            0.11031918                   1
 p    1 1.00
              0.718844                   1
 p    1 1.00
                  0.35                   1
 d    1 1.00
               1.07506                   1

13 0
 s    5 1.00
          7615.0599911  0.0022244960654013
         1145.08684615   0.014140944039399
          261.91952431     0.0697499873722
           74.66834196     0.2637788237864
           24.40551202    0.73342883264723
 s    2 1.00
            8.68679013    0.58931282466157
            3.23657623    0.45281759130673
 s    1 1.00
            1.30179999                   1
 s    1 1.00
            0.52768873                   1
 s    1 1.00
            0.15694534                   1
 p    4 1.00
           34.50767936    0.01182072267457
            7.91304441    0.07777295570278
            2.36615458    0.31452402468813
            0.81172425    0.71532158178263
 p    1 1.00
            0.31228882                   1
 p    1 1.00
            0.11400266                   1
 d    1 1.00
              1.154049                   1
 d    1 1.00
             0.3511286                   1
 f    1 1.00
              0.819312                   1

14 0
 s    3 1.00
           34.87758369   0.024909420015424
            5.23397281    0.18219013687198
            1.18503342     0.8591140347034
 s    1 1.00
            0.32833943                   1
 s    1 1.00
            0.11031918                   1
 p    1 1.00
              0.718844                   1
 p    1 1.00
                  0.35                   1
 d    1 1.00
               1.07506                   1

15 0
 s    3 1.00
           34.87758369   0.024909420015424
            5.23397281    0.18219013687198
            1.18503342     0.8591140347034
 s    1 1.00
            0.32833943                   1
 s    1 1.00
            0.11031918                   1
 p    1 1.00
              0.718844                   1
 p    1 1.00
                  0.35                   1
 d    1 1.00
               1.07506                   1

16 0
 s    3 1.00
           34.87758369   0.024909420015424
            5.23397281    0.18219013687198
            1.18503342     0.8591140347034
 s    1 1.00
            0.32833943                   1
 s    1 1.00
            0.11031918                   1
 p    1 1.00
              0.718844                   1
 p    1 1.00
                  0.35                   1
 d    1 1.00
               1.07506                   1

17 0
 s    5 1.00
          7615.0599911  0.0022244960654013
         1145.08684615   0.014140944039399
          261.91952431     0.0697499873722
           74.66834196     0.2637788237864
           24.40551202    0.73342883264723
 s    2 1.00
            8.68679013    0.58931282466157
            3.23657623    0.45281759130673
 s    1 1.00
            1.30179999                   1
 s    1 1.00
            0.52768873                   1
 s    1 1.00
            0.15694534                   1
 p    4 1.00
           34.50767936    0.01182072267457
            7.91304441    0.07777295570278
            2.36615458    0.31452402468813
            0.81172425    0.71532158178263
 p    1 1.00
            0.31228882                   1
 p    1 1.00
            0.11400266                   1
 d    1 1.00
              1.154049                   1
 d    1 1.00
             0.3511286                   1
 f    1 1.00
              0.819312                   1

18 0
 s    3 1.00
           34.87758369   0.024909420015424
            5.23397281    0.18219013687198
            1.18503342     0.8591140347034
 s    1 1.00
            0.32833943                   1
 s    1 1.00
            0.11031918                   1
 p    1 1.00
              0.718844                   1
 p    1 1.00
                  0.35                   1
 d    1 1.00
               1.07506                   1

19 0
 s    3 1.00
           34.87758369   0.024909420015424
            5.23397281    0.18219013687198
            1.18503342     0.8591140347034
 s    1 1.00
            0.32833943                   1
 s    1 1.00
            0.11031918                   1
 p    1 1.00
              0.718844                   1
 p    1 1.00
                  0.35                   1
 d    1 1.00
               1.07506                   1

20 0
 s    3 1.00
           34.87758369   0.024909420015424
            5.23397281    0.18219013687198
            1.18503342     0.8591140347034
 s    1 1.00
            0.32833943                   1
 s    1 1.00
            0.11031918                   1
 p    1 1.00
              0.718844                   1
 p    1 1.00
                  0.35                   1
 d    1 1.00
               1.07506                   1

21 0
 s    5 1.00
          7615.0599911  0.0022244960654013
         1145.08684615   0.014140944039399
          261.91952431     0.0697499873722
           74.66834196     0.2637788237864
           24.40551202    0.73342883264723
 s    2 1.00
            8.68679013    0.58931282466157
            3.23657623    0.45281759130673
 s    1 1.00
            1.30179999                   1
 s    1 1.00
            0.52768873                   1
 s    1 1.00
            0.15694534                   1
 p    4 1.00
           34.50767936    0.01182072267457
            7.91304441    0.07777295570278
            2.36615458    0.31452402468813
            0.81172425    0.71532158178263
 p    1 1.00
            0.31228882                   1
 p    1 1.00
            0.11400266                   1
 d    1 1.00
              1.154049                   1
 d    1 1.00
             0.3511286                   1
 f    1 1.00
              0.819312                   1

22 0
 s    3 1.00
           34.87758369   0.024909420015424
            5.23397281    0.18219013687198
            1.18503342     0.8591140347034
 s    1 1.00
            0.32833943                   1
 s    1 1.00
            0.11031918                   1
 p    1 1.00
              0.718844                   1
 p    1 1.00
                  0.35                   1
 d    1 1.00
               1.07506                   1

23 0
 s    3 1.00
           34.87758369   0.024909420015424
            5.23397281    0.18219013687198
            1.18503342     0.8591140347034
 s    1 1.00
            0.32833943                   1
 s    1 1.00
            0.11031918                   1
 p    1 1.00
              0.718844                   1
 p    1 1.00
                  0.35                   1
 d    1 1.00
               1.07506                   1

24 0
 s    3 1.00
           34.87758369   0.024909420015424
            5.23397281    0.18219013687198
            1.18503342     0.8591140347034
 s    1 1.00
            0.32833943                   1
 s    1 1.00
            0.11031918                   1
 p    1 1.00
              0.718844                   1
 p    1 1.00
                  0.35                   1
 d    1 1.00
               1.07506                   1

[5d]
[7f]
[9g]

[MO]
 Sym= A
 Ene=               0
 Spin= Alpha
 Occup=    1.00000
   1    -3.4378670512152e-05
   2    -0.00013889323086364
   3    -0.0019284364233952
   4    -6.7020196961876e-05
   5    0.00034647932711773
   6    0.00066067835088779
   7    1.319328849358e-06
   8    0.00097466503507099
   9    -0.033421085642161
  10    -0.0001095193501907
  11    3.1981319409128e-05
  12    0.00022310170829266
  13    -0.00034682185792065
  14    0.0001003560965515
  15    0.00069919887044797
  16    0.00094150940778033
  17    -0.00024212054675852
  18    -0.0020340106676523
  19    0.00017798031812774
  20    -4.5975684174268e-05
  21    -0.00032748986914291
  22    0.00088335675353877
  23    -0.00029168947000846
  24    -0.0013229727707273
  25    -0.0017629167249515
  26    0.00087546224736125
  27    0.0027595746635298
  28    -0.012716183913835
  29    -0.0014289731606893
  30    0.0010429710618001
  31    0.0011403255871984
  32     0.012367300141548
  33    -0.0072119075133788
  34    -0.00081804260184356
  35    0.00017449233828894
  36    0.0006466715279313
  37    0.0074492531032798
  38    -0.0075786181531071
  39    -0.00063435906522552
  40    0.0012969215591307
  41    0.0016197479400819
  42     0.005781626946299
  43    7.2004009402102e-06
  44    6.3397113697247e-06
  45    1.6053438058127e-06
  46    -2.29085466385e-06
  47    -2.6393775583358e-06
  48    6.5617759565261e-06
  49    1.1511882275765e-06
  50    -0.00014315043660262
  51    6.6042865234942e-05
  52    0.00010424687278152
  53    -8.1566397716683e-05
  54    -0.0001092311254097
  55    0.00020693587437528
  56    -0.0002674254653006
  57    8.9578926835452e-06
  58    -1.0281280120663e-05
  59    -5.7418081122767e-07
  60    -7.8268018012935e-06
  61    -8.6313825508384e-06
  62    -4.7367396516422e-06
  63    6.5777589650963e-06
  64    -7.1083398232123e-06
  65    -1.2842947469149e-06
  66    -9.0137814507849e-05
  67    -0.0041023340663787
  68    -0.00020211363349943
  69    -0.00046790954546666
  70    -0.00045261652183272
  71    0.00085862397548767
  72    -0.0056137027445873
  73    -0.0080272445221729
  74    0.0012041681114746
  75    0.0010423470854036
  76    -0.0078562539250939
  77    0.00027623444940553
  78    -0.00024204907534133
  79    -0.00097524050513827
  80    -0.0016709873300032
  81    -9.9067021885444e-05
  82    0.0092937259214739
  83    -0.0015359661628506
  84    -0.0056471742603935
  85     0.017698178733874
  86    -9.3172874732418e-06
  87    0.0044541770666556
  88     0.012695432206664
  89    0.0037242257909559
  90    -0.0022537814285924
  91    0.0020054615370692
  92    0.00072625177665343
  93    3.1386948038857e-05
  94     0.001159769324372
  95    -0.00044533448240208
  96    0.0005986238372851
  97    -0.00064999378288945
  98    0.00043504427806135
  99    -0.00015147440076468
 100    0.00061740714254257
 101    0.00017861702726814
 102    -0.00019759536002573
 103    0.00030273657027624
 104    -2.0267491003413e-06
 105    -4.3133859161172e-05
 106    -2.122873073594e-06
 107    -0.00043275500652193
 108    -7.4682202199487e-07
 109    -2.2892517221846e-05
 110    2.6207729589441e-05
 111    -0.00012985695949779
 112    -0.0022515464205063
 113    0.0036065575438625
 114    -5.1338335980547e-05
 115    -0.00061266595747045
 116    0.00053077041660882
 117    4.9545058069673e-05
 118    -0.00027383599514193
 119    -0.00017776502638825
 120    -0.00016165168941431
 121    0.0013532581340821
 122    0.0002294598536405
 123    0.00096295705424492
 124    -0.00020095735878762
 125    -0.0028411937765835
 126    0.0030068159295073
 127    0.0048089102442563
 128    -0.0029171529980685
 129    0.0013626010487675
 130    0.00035210452242957
 131    4.7679246837992e-05
 132    -0.00081483365014688
 133    0.00025437324681219
 134    -0.00026920661758273
 135    0.00022468439758102
 136    0.00019914088246042
 137    5.2972253445979e-06
 138    5.2746953553826e-05
 139    -3.2360195777594e-06
 140    -0.00011021365221893
 141    -2.07783437754e-05
 142    -2.4992139445571e-05
 143    -8.4852391631904e-05
 144    3.4718081004845e-05
 145    3.4051606671896e-06
 146    5.5196908694182e-06
 147    0.00012438839996534
 148    1.4089080023232e-05
 149    2.3708351096395e-05
 150    4.3551013939369e-05
 151    -0.00011693688791503
 152    -0.00028644145648735
 153    0.0025406317978205
 154    0.0005960797567924
 155    -0.00047497264018399
 156    -0.00021091825447187
 157    0.00012935118065263
 158    -0.0002596154017094
 159    4.4595570258762e-05
 160    -0.0008095948621089
 161    0.0012598032436114
 162    1.4559514668415e-05
 163    -0.0011625674918642
 164    -0.00099706038667772
 165    0.00052095795622647
 166    -0.0034181752235853
 167    0.00041181339524875
 168    -0.00021846749383702
 169    0.00074884085170554
 170    -0.00068276942771033
 171    -0.001669162524112
 172    0.00025911251251156
 173    -0.0011148890633773
 174    6.4391336609727e-05
 175    0.00012139364416883
 176    -6.7678566738963e-05
 177    8.2548049998327e-05
 178    -0.00026384405269906
 179    3.281309508184e-05
 180    3.8730921974664e-05
 181    -4.9588213796896e-05
 182    -6.3101147701366e-05
 183    -0.00017752800283888
 184    1.3668598005399e-05
 185    -0.00014421064724351
 186    -3.2930819284697e-05
 187    -0.00078949135286097
 188    -7.8553511082698e-05
 189    -0.000153088592421
 190    -0.00020685269753085
 191    0.00048134124750661
 192    0.0026745001331494
 193    -0.011960433611676
 194    -0.0013487034098013
 195    -0.0019526141682975
 196    -0.0044897120173634
 197    0.00027776976262975
 198    -0.00032279124167635
 199    -0.00052498372608597
 200    -0.00013737639144456
 201    0.0021394879518739
 202    0.0047159158796056
 203    0.0067728819038985
 204    0.0030615135244951
 205    0.0099931571119726
 206    -0.0033858795197621
 207     0.010089319066072
 208     0.008125619349147
 209    0.00069669034787781
 210    0.00036912032418694
 211    -0.00072851427432226
 212    0.00044098402459575
 213    -0.0022043383666123
 214    -0.00037557804299129
 215    -0.00015599845567897
 216    -0.00011409377320896
 217    -0.00040882203869503
 218    -0.00015615131282721
 219    -7.3339900563104e-06
 220    -0.00035442641225977
 221    -8.717476374816e-05
 222    -0.00012446989236664
 223    -0.00028189152956282
 224    -3.2481792436866e-05
 225    8.3148953773164e-05
 226    9.0377160303675e-05
 227    0.00038314251734812
 228    0.0071592002923635
 229    0.00017412416927401
 230    -0.001117725904165
 231    -0.0019532331815573
 232     0.005831513123769
 233    -0.025456744910368
 234     0.074449428265396
 235    -0.00096172019150383
 236    0.00039527769762339
 237    -0.0015917637485847
 238    -0.0029734874227372
 239    0.0012130877684207
 240    -0.004906838761935
 241    0.0096840737113919
 242    -0.0041106601364475
 243       0.0150319616723
 244    0.0012256504715055
 245    -0.00046154473898226
 246    0.0019130855602451
 247    0.0027769206782711
 248    -0.00068366175448943
 249    0.0043305857799656
 250    -0.006279088959791
 251    0.0020063108862286
 252    -0.0081050874757808
 253    -0.037683100033374
 254     0.040473806485592
 255    -0.010578485491738
 256    -0.0057656501199664
 257    0.0049597102537866
 258     -0.02005183759648
 259     0.023980264401579