[Molden Format]
made by pyscf v[2.4.0]
[Atoms] (AU)
S   1   16     0.07558904498260    -3.36371250172581    -2.44152615293806
S   2   16    -0.07558904498260     3.36371250172581    -2.44341587906262
S   3   16     3.36371250172581    -0.07558904498260     2.44530560518719
S   4   16    -3.36371250172581     0.07558904498260     2.44719533131176
Fe   5   26     0.09448630622825    -2.58892479065414     1.91996174255810
Fe   6   26    -2.60782205189978     0.09448630622825    -1.90295420743702
Fe   7   26    -0.09448630622825     2.60782205189978     1.90484393356158
Fe   8   26     2.58892479065414    -0.09448630622825    -1.92563092093180
S   9   16     0.45353426989561     6.23609621106470     4.04590363269380
S   10   16    -0.45353426989561    -6.21719894981905     4.04609260530625
S   11   16    -6.21719894981905    -0.45353426989561    -4.04628157791871
S   12   16     6.21719894981905     0.45353426989561    -4.04647055053117
C   13   6    -7.18095927334723    -3.47709606919971    -2.61046766847418
H   14   1    -7.38882914704939    -3.23143167300626    -0.55085516531072
H   15   1    -8.99509635292969    -4.10070569030618    -3.42342784726207
H   16   1    -5.72587015743214    -4.91328792386916    -2.95118528873326
C   17   6     7.18095927334723     3.45819880795406    -2.61122355892400
H   18   1     7.38882914704939     3.23143167300626    -0.55161105576054
H   19   1     8.99509635292969     4.08180842906053    -3.42418373771189
H   20   1     5.72587015743214     4.89439066262351    -2.93304391793743
C   21   6    -3.45819880795406    -7.18095927334723     2.61197944937383
H   22   1    -4.08180842906053    -8.99509635292969     3.42475065554926
H   23   1    -4.89439066262351    -5.72587015743214     2.93361083577480
H   24   1    -3.21253441176060    -7.38882914704939     0.55274489143528
C   25   6     3.47709606919971     7.18095927334723     2.61273533982365
H   26   1     4.10070569030618     8.99509635292969     3.42550654599909
H   27   1     4.91328792386916     5.72587015743214     2.95326398747028
H   28   1     3.23143167300626     7.38882914704939     0.54802057612387
[GTO]
1 0
 s    3 1.00
           533.1257359    0.15432896729818
            97.1095183    0.53532814229368
           26.28162542    0.44463454219475
 s    3 1.00
           33.32975173  -0.099967229188172
           7.745117521    0.39951282609269
           2.518952599     0.7001154688872
 s    3 1.00
           2.029194274   -0.21962036900156
          0.5661400518     0.2255954336016
          0.2215833792    0.90039842600638
 p    3 1.00
           33.32975173    0.15591627500265
           7.745117521    0.60768371861031
           2.518952599    0.39195739310665
 p    3 1.00
           2.029194274   0.010587604289556
          0.5661400518    0.59516700527507
          0.2215833792    0.46200101198065

2 0
 s    3 1.00
           533.1257359    0.15432896729818
            97.1095183    0.53532814229368
           26.28162542    0.44463454219475
 s    3 1.00
           33.32975173  -0.099967229188172
           7.745117521    0.39951282609269
           2.518952599     0.7001154688872
 s    3 1.00
           2.029194274   -0.21962036900156
          0.5661400518     0.2255954336016
          0.2215833792    0.90039842600638
 p    3 1.00
           33.32975173    0.15591627500265
           7.745117521    0.60768371861031
           2.518952599    0.39195739310665
 p    3 1.00
           2.029194274   0.010587604289556
          0.5661400518    0.59516700527507
          0.2215833792    0.46200101198065

3 0
 s    3 1.00
           533.1257359    0.15432896729818
            97.1095183    0.53532814229368
           26.28162542    0.44463454219475
 s    3 1.00
           33.32975173  -0.099967229188172
           7.745117521    0.39951282609269
           2.518952599     0.7001154688872
 s    3 1.00
           2.029194274   -0.21962036900156
          0.5661400518     0.2255954336016
          0.2215833792    0.90039842600638
 p    3 1.00
           33.32975173    0.15591627500265
           7.745117521    0.60768371861031
           2.518952599    0.39195739310665
 p    3 1.00
           2.029194274   0.010587604289556
          0.5661400518    0.59516700527507
          0.2215833792    0.46200101198065

4 0
 s    3 1.00
           533.1257359    0.15432896729818
            97.1095183    0.53532814229368
           26.28162542    0.44463454219475
 s    3 1.00
           33.32975173  -0.099967229188172
           7.745117521    0.39951282609269
           2.518952599     0.7001154688872
 s    3 1.00
           2.029194274   -0.21962036900156
          0.5661400518     0.2255954336016
          0.2215833792    0.90039842600638
 p    3 1.00
           33.32975173    0.15591627500265
           7.745117521    0.60768371861031
           2.518952599    0.39195739310665
 p    3 1.00
           2.029194274   0.010587604289556
          0.5661400518    0.59516700527507
          0.2215833792    0.46200101198065

5 0
 s    3 1.00
           1447.400411    0.15432896729616
           263.6457916    0.53532814228668
           71.35284019    0.44463454218894
 s    3 1.00
           111.9194891  -0.099967229199427
           26.00768236    0.39951282609771
            8.45850549    0.70011546889599
 s    3 1.00
           8.548569754    -0.2277635023035
            2.60758625    0.21754360440334
            1.00608784    0.91667696111408
 s    3 1.00
          0.5921156814   -0.30884412136822
          0.2185279254   0.019606411691634
          0.0965042359     1.1310344415174
 p    3 1.00
           111.9194891    0.15591627500185
           26.00768236    0.60768371860722
            8.45850549    0.39195739310466
 p    3 1.00
           8.548569754  0.0049515112002182
            2.60758625    0.57776646912546
            1.00608784    0.48464603662135
 p    3 1.00
          0.5921156814   -0.12154686000106
          0.2185279254      0.571522760405
          0.0965042359    0.54989494710481
 d    3 1.00
           6.411803475    0.21976795079435
           1.955804428    0.65554736268314
           0.754610151    0.28657325899263

6 0
 s    3 1.00
           1447.400411    0.15432896729616
           263.6457916    0.53532814228668
           71.35284019    0.44463454218894
 s    3 1.00
           111.9194891  -0.099967229199427
           26.00768236    0.39951282609771
            8.45850549    0.70011546889599
 s    3 1.00
           8.548569754    -0.2277635023035
            2.60758625    0.21754360440334
            1.00608784    0.91667696111408
 s    3 1.00
          0.5921156814   -0.30884412136822
          0.2185279254   0.019606411691634
          0.0965042359     1.1310344415174
 p    3 1.00
           111.9194891    0.15591627500185
           26.00768236    0.60768371860722
            8.45850549    0.39195739310466
 p    3 1.00
           8.548569754  0.0049515112002182
            2.60758625    0.57776646912546
            1.00608784    0.48464603662135
 p    3 1.00
          0.5921156814   -0.12154686000106
          0.2185279254      0.571522760405
          0.0965042359    0.54989494710481
 d    3 1.00
           6.411803475    0.21976795079435
           1.955804428    0.65554736268314
           0.754610151    0.28657325899263

7 0
 s    3 1.00
           1447.400411    0.15432896729616
           263.6457916    0.53532814228668
           71.35284019    0.44463454218894
 s    3 1.00
           111.9194891  -0.099967229199427
           26.00768236    0.39951282609771
            8.45850549    0.70011546889599
 s    3 1.00
           8.548569754    -0.2277635023035
            2.60758625    0.21754360440334
            1.00608784    0.91667696111408
 s    3 1.00
          0.5921156814   -0.30884412136822
          0.2185279254   0.019606411691634
          0.0965042359     1.1310344415174
 p    3 1.00
           111.9194891    0.15591627500185
           26.00768236    0.60768371860722
            8.45850549    0.39195739310466
 p    3 1.00
           8.548569754  0.0049515112002182
            2.60758625    0.57776646912546
            1.00608784    0.48464603662135
 p    3 1.00
          0.5921156814   -0.12154686000106
          0.2185279254      0.571522760405
          0.0965042359    0.54989494710481
 d    3 1.00
           6.411803475    0.21976795079435
           1.955804428    0.65554736268314
           0.754610151    0.28657325899263

8 0
 s    3 1.00
           1447.400411    0.15432896729616
           263.6457916    0.53532814228668
           71.35284019    0.44463454218894
 s    3 1.00
           111.9194891  -0.099967229199427
           26.00768236    0.39951282609771
            8.45850549    0.70011546889599
 s    3 1.00
           8.548569754    -0.2277635023035
            2.60758625    0.21754360440334
            1.00608784    0.91667696111408
 s    3 1.00
          0.5921156814   -0.30884412136822
          0.2185279254   0.019606411691634
          0.0965042359     1.1310344415174
 p    3 1.00
           111.9194891    0.15591627500185
           26.00768236    0.60768371860722
            8.45850549    0.39195739310466
 p    3 1.00
           8.548569754  0.0049515112002182
            2.60758625    0.57776646912546
            1.00608784    0.48464603662135
 p    3 1.00
          0.5921156814   -0.12154686000106
          0.2185279254      0.571522760405
          0.0965042359    0.54989494710481
 d    3 1.00
           6.411803475    0.21976795079435
           1.955804428    0.65554736268314
           0.754610151    0.28657325899263

9 0
 s    3 1.00
           533.1257359    0.15432896729818
            97.1095183    0.53532814229368
           26.28162542    0.44463454219475
 s    3 1.00
           33.32975173  -0.099967229188172
           7.745117521    0.39951282609269
           2.518952599     0.7001154688872
 s    3 1.00
           2.029194274   -0.21962036900156
          0.5661400518     0.2255954336016
          0.2215833792    0.90039842600638
 p    3 1.00
           33.32975173    0.15591627500265
           7.745117521    0.60768371861031
           2.518952599    0.39195739310665
 p    3 1.00
           2.029194274   0.010587604289556
          0.5661400518    0.59516700527507
          0.2215833792    0.46200101198065

10 0
 s    3 1.00
           533.1257359    0.15432896729818
            97.1095183    0.53532814229368
           26.28162542    0.44463454219475
 s    3 1.00
           33.32975173  -0.099967229188172
           7.745117521    0.39951282609269
           2.518952599     0.7001154688872
 s    3 1.00
           2.029194274   -0.21962036900156
          0.5661400518     0.2255954336016
          0.2215833792    0.90039842600638
 p    3 1.00
           33.32975173    0.15591627500265
           7.745117521    0.60768371861031
           2.518952599    0.39195739310665
 p    3 1.00
           2.029194274   0.010587604289556
          0.5661400518    0.59516700527507
          0.2215833792    0.46200101198065

11 0
 s    3 1.00
           533.1257359    0.15432896729818
            97.1095183    0.53532814229368
           26.28162542    0.44463454219475
 s    3 1.00
           33.32975173  -0.099967229188172
           7.745117521    0.39951282609269
           2.518952599     0.7001154688872
 s    3 1.00
           2.029194274   -0.21962036900156
          0.5661400518     0.2255954336016
          0.2215833792    0.90039842600638
 p    3 1.00
           33.32975173    0.15591627500265
           7.745117521    0.60768371861031
           2.518952599    0.39195739310665
 p    3 1.00
           2.029194274   0.010587604289556
          0.5661400518    0.59516700527507
          0.2215833792    0.46200101198065

12 0
 s    3 1.00
           533.1257359    0.15432896729818
            97.1095183    0.53532814229368
           26.28162542    0.44463454219475
 s    3 1.00
           33.32975173  -0.099967229188172
           7.745117521    0.39951282609269
           2.518952599     0.7001154688872
 s    3 1.00
           2.029194274   -0.21962036900156
          0.5661400518     0.2255954336016
          0.2215833792    0.90039842600638
 p    3 1.00
           33.32975173    0.15591627500265
           7.745117521    0.60768371861031
           2.518952599    0.39195739310665
 p    3 1.00
           2.029194274   0.010587604289556
          0.5661400518    0.59516700527507
          0.2215833792    0.46200101198065

13 0
 s    3 1.00
             71.616837    0.15432897000916
             13.045096    0.53532814003178
             3.5305122     0.4446345400264
 s    3 1.00
             2.9412494  -0.099967230075964
             0.6834831    0.39951283030359
             0.2222899    0.70011547053201
 p    3 1.00
             2.9412494    0.15591627210511
             0.6834831    0.60768372820466
             0.2222899    0.39195739529202

14 0
 s    3 1.00
            3.42525091    0.15432897070298
            0.62391373    0.53532814243847
             0.1688554    0.44463454202535

15 0
 s    3 1.00
            3.42525091    0.15432897070298
            0.62391373    0.53532814243847
             0.1688554    0.44463454202535

16 0
 s    3 1.00
            3.42525091    0.15432897070298
            0.62391373    0.53532814243847
             0.1688554    0.44463454202535

17 0
 s    3 1.00
             71.616837    0.15432897000916
             13.045096    0.53532814003178
             3.5305122     0.4446345400264
 s    3 1.00
             2.9412494  -0.099967230075964
             0.6834831    0.39951283030359
             0.2222899    0.70011547053201
 p    3 1.00
             2.9412494    0.15591627210511
             0.6834831    0.60768372820466
             0.2222899    0.39195739529202

18 0
 s    3 1.00
            3.42525091    0.15432897070298
            0.62391373    0.53532814243847
             0.1688554    0.44463454202535

19 0
 s    3 1.00
            3.42525091    0.15432897070298
            0.62391373    0.53532814243847
             0.1688554    0.44463454202535

20 0
 s    3 1.00
            3.42525091    0.15432897070298
            0.62391373    0.53532814243847
             0.1688554    0.44463454202535

21 0
 s    3 1.00
             71.616837    0.15432897000916
             13.045096    0.53532814003178
             3.5305122     0.4446345400264
 s    3 1.00
             2.9412494  -0.099967230075964
             0.6834831    0.39951283030359
             0.2222899    0.70011547053201
 p    3 1.00
             2.9412494    0.15591627210511
             0.6834831    0.60768372820466
             0.2222899    0.39195739529202

22 0
 s    3 1.00
            3.42525091    0.15432897070298
            0.62391373    0.53532814243847
             0.1688554    0.44463454202535

23 0
 s    3 1.00
            3.42525091    0.15432897070298
            0.62391373    0.53532814243847
             0.1688554    0.44463454202535

24 0
 s    3 1.00
            3.42525091    0.15432897070298
            0.62391373    0.53532814243847
             0.1688554    0.44463454202535

25 0
 s    3 1.00
             71.616837    0.15432897000916
             13.045096    0.53532814003178
             3.5305122     0.4446345400264
 s    3 1.00
             2.9412494  -0.099967230075964
             0.6834831    0.39951283030359
             0.2222899    0.70011547053201
 p    3 1.00
             2.9412494    0.15591627210511
             0.6834831    0.60768372820466
             0.2222899    0.39195739529202

26 0
 s    3 1.00
            3.42525091    0.15432897070298
            0.62391373    0.53532814243847
             0.1688554    0.44463454202535

27 0
 s    3 1.00
            3.42525091    0.15432897070298
            0.62391373    0.53532814243847
             0.1688554    0.44463454202535

28 0
 s    3 1.00
            3.42525091    0.15432897070298
            0.62391373    0.53532814243847
             0.1688554    0.44463454202535

[5d]
[7f]
[9g]

[MO]
 Sym= A
 Ene=               0
 Spin= Alpha
 Occup=    1.00000
   1    1.0471913715992e-05
   2    -1.6307087092652e-05
   3    9.3580703910499e-06
   4    2.2343607750644e-05
   5    1.2065564027283e-05
   6    -1.1899219173762e-05
   7    -4.8577507167162e-05
   8    -1.036813719137e-05
   9    3.0800551961106e-05
  10    1.7462319824114e-05
  11    -4.9836500575318e-05
  12    0.00020293029914149
  13    -1.1765384626654e-05
  14    -2.9227126762356e-06
  15    -3.0789413180479e-05
  16    9.8925663538655e-05
  17    8.7837780767413e-05
  18    0.00012695273656882
  19    9.0919220671202e-06
  20    -4.3166927662779e-05
  21    0.00020903621642283
  22    1.0057497472666e-05
  23    -3.0110182636767e-05
  24    1.8195169101463e-05
  25    1.3172584827748e-05
  26    0.00018100260179592
  27    -1.8978004229004e-05
  28    -3.2276793213073e-06
  29    6.3622283306594e-06
  30    -8.3556141915957e-05
  31    -2.3082746353788e-05
  32    -5.300762978991e-05
  33    -1.6915473704818e-05
  34    9.4654347385515e-05
  35    0.00015918639052766
  36    4.6084557201671e-05
  37    2.5239513651854e-06
  38    -3.7296866621239e-06
  39    2.7573687220707e-06
  40    -0.00011469274935801
  41    -5.4673008418854e-07
  42    6.4229681409023e-06
  43    -1.7253208958812e-06
  44    -1.948703175048e-06
  45    -1.8461700860151e-05
  46    1.1752037547761e-05
  47    1.622743721877e-05
  48    -1.689265859112e-05
  49    -2.8770452755394e-05
  50    5.8620009048887e-06
  51    -3.3746329861619e-06
  52    -2.8216983338242e-05
  53    -4.5932118734276e-05
  54    2.9745116153162e-06
  55    -1.8480270003287e-06
  56    -5.0156223113157e-06
  57    -1.5165964811996e-07
  58    -0.00011260595757912
  59    9.965920600516e-06
  60    3.9090394107643e-06
  61    3.3544624956782e-06
  62    -2.2979643803254e-05
  63    3.0302232438887e-06
  64    -7.3169319728052e-06
  65    1.9718605621947e-05
  66    -1.8950257046585e-05
  67    -2.2279552779811e-05
  68    -6.8071842781963e-06
  69    4.4075279842029e-05
  70    1.9221195613424e-05
  71    2.1141835839667e-05
  72    -1.357493901793e-06
  73    4.9152068447127e-07
  74    -2.4755786490768e-05
  75    0.00012867830433196
  76    -0.00010087951111215
  77    -5.2267290943356e-05
  78    -3.5429329573181e-05
  79    1.109267868119e-05
  80    0.00017634574928535
  81    0.00013549869342908
  82    -3.0756307630447e-05
  83    -0.00047244144449684
  84    -0.00033403838849569
  85    0.00010327173519695
  86    -1.9540026629429e-05
  87    1.8401410555792e-05
  88    4.7563098781857e-05
  89    -4.5233735037373e-05
  90    4.3737158291902e-05
  91    -5.2059888609712e-06
  92    2.0083569862752e-05
  93    -3.7425091293002e-05
  94    0.00019769109092608
  95    -1.1101821757515e-05
  96    1.708212427522e-05
  97    9.3216378695246e-06
  98    2.5938562140112e-05
  99    -2.2138613163418e-05
 100    -1.9313998479994e-05
 101    -4.8067444665015e-05
 102    0.00011160118710838
 103    0.00011410118011356
 104    1.4733541194632e-05
 105    -2.8899703008648e-05
 106    1.0684202041535e-05
 107    1.2927979012099e-05
 108    -2.1121654656407e-05
 109    -0.00043596518443011
 110    0.0016068480143689
 111    -0.006894559671934
 112    0.0010464898715898
 113    0.00041656774314261
 114    -0.00044355096773247
 115    -0.0060637539219988
 116    -0.0020862920901115
 117    0.0027695387127304
 118    -2.0985248216747e-06
 119    -1.3108027230285e-06
 120    1.3383340075114e-05
 121    6.6459329848072e-06
 122    -7.8771002808904e-06
 123    -4.6350437779979e-06
 124    -1.8191067616079e-05
 125    2.4577127308639e-05
 126    7.5460759636549e-06
 127    -1.9741394135079e-06
 128    6.4096821814283e-06
 129    9.4305155669653e-06
 130    -2.2689273371932e-06
 131    8.754530177168e-07
 132    -4.2819528729809e-06
 133    1.478315772763e-06
 134    -1.6365985814587e-06
 135    2.5625883552486e-05
 136    -1.7702753914173e-06
 137    6.6977617899476e-06
 138    -6.7843111574347e-05
 139    2.3015471023527e-05
 140    -8.0481070382853e-08
 141    3.3638521017129e-06
 142    -7.9053447513714e-05
 143    -2.6580140444857e-05
 144    1.8641977365903e-05
 145    5.4708381593024e-06
 146    6.6231108642821e-06
 147    6.8118370927865e-06
 148    5.2916833054462e-06
 149      1.1524357062e-05
 150    -5.5555491724275e-06
 151    -1.0506569611525e-05
 152    4.3691103746352e-06
 153    -6.1847579348663e-05
 154    0.00014784479549247
 155    -7.4839079345761e-05
 156    4.5578568916583e-05
 157    8.9381325630747e-05
 158    0.00026874933589331
 159    -3.5491365358383e-05
 160    0.00026914626671475
 161    -2.7164392692472e-06
 162    1.2223450357725e-05
 163    -9.4811241264564e-06
 164    6.0880831839568e-06
 165    2.356146700253e-06
 166    1.2666299534185e-06
 167    -5.1801617213602e-06
 168    4.5849407755792e-06
 169      0.99922529318774
 170     0.016437436247473
 171    -0.0039601241157265
 172    -0.0012505910974621
 173    0.0017187458893046
 174    -0.019603516344368
 175    -0.019403968842599
 176    -0.018948876058466
 Sym= A
 Ene=               1
 Spin= Alpha
 Occup=    1.00000
   1     2.02322399732e-05
   2    -5.7036617721726e-05
   3    0.00020070234748191
   4    2.7997627710317e-05
   5    -6.8543800744107e-06
   6    -2.1781147987822e-05
   7    -0.00017746066864209
   8    -2.3286506382555e-05
   9    1.9910198589352e-05
  10    9.013118739235e-07
  11    -4.8247872640797e-07
  12    -8.9939977073129e-05
  13    6.2517376549446e-05
  14    3.5907265089376e-05
  15    2.3370465979257e-05
  16    -0.00016992429198566
  17    -9.7304028138059e-05
  18    -4.2199412778393e-05
  19    -3.4752148146845e-06
  20    2.719632492947e-06
  21    6.7171557089557e-06
  22    -2.4656116773872e-06
  23    -1.7765288025787e-05
  24    9.9429158401173e-06
  25    9.121948712775e-06
  26    5.4647633379389e-05
  27    -3.2943604768232e-05
  28    1.1967599461558e-05
  29    -4.7916073390638e-05
  30    0.0001992679287994
  31    1.7791600159435e-06
  32    2.7607715628921e-05
  33    3.1390730753277e-05
  34    -8.5844543534992e-05
  35    -0.00011044640712894
  36    -0.00012307898413511
  37    -7.410995854904e-06
  38    1.5745584180174e-05
  39    -4.2870941162655e-05
  40    0.00019822054065358
  41    -6.6150589368305e-06
  42    1.2855092563818e-05
  43    2.4723439462603e-06
  44    9.9292444442225e-06
  45    -3.78271590244e-05
  46    1.3458616833506e-05
  47    -0.00011337677639097
  48    4.9481033982682e-05
  49    -0.00011955479126559
  50    1.3317656293604e-05
  51    1.0223394500824e-05
  52    -2.963050985618e-05
  53    -1.4685079002873e-05
  54    -2.3848474015989e-05
  55    1.9015063618666e-05
  56    -4.6535564522059e-05
  57    0.0001262014775768
  58    -0.00010932281717256
  59    2.5834784872207e-05
  60    5.4726975013716e-05
  61    -7.5202806416728e-06
  62    -0.0001409589552093
  63    -0.0001677419507111
  64     1.73517762974e-05
  65    0.00033752632532612
  66    0.00046418288548934
  67    -8.982445844804e-05
  68    -2.2026956418133e-05
  69    4.9278049148688e-05
  70    1.8625088980985e-05
  71    4.6042196101584e-05
  72    4.800948623538e-05
  73    -8.2942055124064e-06
  74    3.3497377114639e-07
  75    1.3398441279436e-05
  76    -0.00011575531671628
  77    -5.2864736350265e-06
  78    -1.8196316696992e-05
  79    -3.6552025281444e-06
  80    -3.2214980958475e-06
  81    2.8731711944304e-05
  82    7.8040038953706e-06
  83    2.017357712359e-05
  84    -2.5011236671347e-05
  85    1.5983951856746e-05
  86    -6.7018444758551e-06
  87    2.0019299272123e-05
  88    4.6265880285392e-05
  89    -2.3991775846884e-05
  90    -3.2232927620492e-06
  91    2.1527516459324e-06
  92    -4.9793930077715e-06
  93     1.02114228041e-06
  94    -0.00012278141741155
  95    -5.3120567979527e-06
  96    -2.0138353609379e-06
  97    4.7746172328418e-06
  98    1.4912389258985e-05
  99    5.5992506473427e-06
 100    -1.5828838172665e-05
 101    1.6001000719638e-05
 102    -1.7148246960728e-05
 103    3.0648409218472e-05
 104    6.9203434450423e-06
 105    -3.2278609201911e-05
 106    -3.2864784371144e-06
 107    4.7917850559851e-05
 108    3.4692841208349e-06
 109    -6.2018722606786e-06
 110    7.6395632019539e-06
 111    2.6380883782464e-05
 112    1.9554789723375e-06
 113    -3.9946302713562e-06
 114    -4.5119610965137e-06
 115    -7.7535579122025e-06
 116    7.0423399600506e-06
 117    -2.4463772872069e-05
 118    -5.1991388740095e-06
 119    9.4939758227727e-06
 120    -5.7742566146885e-05
 121    -6.9919406137202e-06
 122    -2.4441989311585e-05
 123    1.2682115079399e-05
 124    3.1734256403682e-05
 125    6.706622866802e-05
 126    -2.2935172520786e-05
 127    -0.00043893659493769
 128    0.0015934514184878
 129    -0.0068239734133871
 130    -0.00041342234549585
 131    -0.0010323619165425
 132    0.00043463416935262
 133    0.0020920189941529
 134    0.0059899229087539
 135    -0.0027383114821136
 136    4.8423684338188e-06
 137    -1.3900919507286e-05
 138    2.5457119864458e-05
 139    7.8117293198014e-07
 140    -2.701200619335e-06
 141    -8.23203170429e-06
 142    -2.4879982488444e-05
 143    1.7502472325903e-05
 144    -1.2173032441848e-05
 145      0.99923042499667
 146     0.016442958370411
 147    0.0012655942738903
 148    0.0039559813868361
 149    -0.001763384993672
 150    -0.019075129326768
 151    -0.019593718151983
 152    -0.019396868337921
 153    -2.5105204947348e-06
 154    7.2943621618623e-06
 155    -8.3472459889675e-06
 156    6.7819931834503e-06
 157    4.2995599703167e-06
 158    9.8354221386449e-06
 159    -5.9580414238607e-06
 160    -8.3206705879389e-06
 161    -6.3341113903131e-05
 162    0.00014851068364822
 163    -4.6338913684815e-05
 164    7.7933031568984e-05
 165    -8.5987610550742e-05
 166    -3.7432325003107e-05
 167    0.00027247700817032
 168    0.0002639668001113
 169    -8.1153646647686e-06
 170    6.8943944969609e-06
 171    -2.181819674992e-06
 172    1.6190041034277e-06
 173    -1.3981897849091e-05
 174    -4.4778418834855e-06
 175    2.7420079949854e-06
 176    -3.4520828121528e-06
 Sym= A
 Ene=               2
 Spin= Alpha
 Occup=    1.00000
   1    -1.4252373542802e-05
   2    4.3999412026301e-05
   3    -0.00020194411988365
   4    -3.4310467190177e-05
   5    -7.1088301053946e-06
   6    3.052031047374e-05
   7    0.0001116196314651
   8    8.4687395587504e-05
   9    -0.00012480395105531
  10    1.5860907767032e-06
  11    -1.1245740897544e-06
  12    -9.1966547614011e-06
  13    1.7123279308445e-05
  14    2.1007367453786e-06
  15    1.2516989324342e-05
  16    -4.838858138302e-05
  17    -1.2550837888472e-05
  18    -2.9882722564885e-05
  19    9.1375520224232e-06
  20    -2.1964204339028e-05
  21    9.0055691579848e-05
  22    -3.2815749801664e-05
  23    -5.3165616638901e-05
  24    1.7452537061646e-05
  25    9.4445551487296e-05
  26    0.00016036903858432
  27    -4.6364915158626e-05
  28    -1.8819030459205e-05
  29    6.0779161393621e-05
  30    -0.00019552891995397
  31    1.3727579881877e-05
  32    -3.258490330448e-05
  33    -2.0740590279039e-05
  34    9.8497184782506e-06
  35    0.00018272848441818
  36    1.6001569765747e-05
  37    -1.0194642920292e-05
  38    3.3711761798692e-05
  39    -0.00011755380333126
  40    6.7915303586298e-05
  41    -4.3792447430583e-05
  42    -3.4215883718817e-05
  43    3.229861932786e-07
  44    0.00017205197868593
  45    0.00012983780716449
  46    3.2154033873552e-05
  47    -0.00044172140974144
  48    -0.00031536975263905
  49    -0.00010747405914321
  50    1.8704272895758e-05
  51    1.7606592081836e-05
  52    5.2968130492711e-05
  53    4.8156656858669e-05
  54    -4.2174538605045e-05
  55    5.6955219186453e-06
  56    -1.0857846828286e-05
  57    3.9703328679771e-05
  58    -0.00020292957410582
  59    -7.2890328058657e-06
  60    1.1408187132753e-06
  61    3.7400580163662e-06
  62    1.7083760229226e-05
  63    -1.9737219827991e-05
  64    2.7792226123581e-05
  65    -5.1180383667313e-05
  66    0.00011437211604051
  67    -0.00011605012188913
  68    -1.2303551226758e-05
  69    -3.1791591081379e-05
  70    1.0762443939881e-05
  71    -1.428400101596e-05
  72    2.2723011188512e-05
  73    2.8203888430348e-06
  74    2.5636236948966e-06
  75    -7.4560496412481e-06
  76    0.00011889425257243
  77    5.9747676862851e-06
  78    -2.0434834586396e-06
  79    1.2650391273741e-05
  80    -4.8859902055753e-06
  81    -1.7026130368291e-05
  82    -1.7294135451384e-05
  83    1.5598305497002e-05
  84    -1.5104729174634e-05
  85    3.1501622936652e-05
  86    -5.0939565256489e-06
  87    -3.5176628184887e-06
  88    -3.0672248170823e-05
  89    4.8783958249862e-05
  90    -4.1569337568424e-06
  91    6.3964556365561e-07
  92    7.5140298093928e-06
  93    -5.2455759423087e-06
  94    0.00011593729346988
  95     3.73585948814e-06
  96    2.3413947779781e-06
  97    -4.214896855113e-06
  98    -1.4739477498485e-05
  99    -6.8065150158188e-06
 100    1.5720832068768e-05
 101    2.4705165927202e-05
 102    -2.0045135726162e-05
 103    1.5304785742938e-05
 104    6.5245546096122e-06
 105    4.6155138155656e-05
 106    1.860754271949e-05
 107    -2.4831455264074e-05
 108    2.1615804639667e-06
 109    -9.4813925821929e-07
 110    2.033693119185e-06
 111    -1.8382746873239e-05
 112    6.7651693632245e-06
 113    -3.5082657958534e-06
 114    1.1746425649875e-06
 115    -1.5244589885658e-05
 116    2.0705702398735e-05
 117    -3.2860170304674e-06
 118    0.00044384938769722
 119    -0.0016313135230932
 120    0.0070224156844601
 121    0.0010625582149432
 122    0.00043320361757291
 123    0.00045420334398773
 124    -0.0061453245901652
 125    -0.0021651048065407
 126    -0.0028303876855803
 127    -8.871958105639e-07
 128    -7.623713002225e-06
 129    6.9995546527884e-05
 130    2.5861169756924e-05
 131    8.3970264387853e-06
 132    1.411470526526e-05
 133    -7.328952795389e-05
 134    -3.1436674061867e-05
 135    -2.8914975699125e-05
 136    -7.9068187777984e-06
 137    4.9160253439313e-06