[Molden Format]
made by pyscf v[2.4.0]
[Atoms] (AU)
S   1   16     0.07558904498260    -3.36371250172581    -2.44152615293806
S   2   16    -0.07558904498260     3.36371250172581    -2.44341587906262
S   3   16     3.36371250172581    -0.07558904498260     2.44530560518719
S   4   16    -3.36371250172581     0.07558904498260     2.44719533131176
Fe   5   26     0.09448630622825    -2.58892479065414     1.91996174255810
Fe   6   26    -2.60782205189978     0.09448630622825    -1.90295420743702
Fe   7   26    -0.09448630622825     2.60782205189978     1.90484393356158
Fe   8   26     2.58892479065414    -0.09448630622825    -1.92563092093180
S   9   16     0.45353426989561     6.23609621106470     4.04590363269380
S   10   16    -0.45353426989561    -6.21719894981905     4.04609260530625
S   11   16    -6.21719894981905    -0.45353426989561    -4.04628157791871
S   12   16     6.21719894981905     0.45353426989561    -4.04647055053117
C   13   6    -7.18095927334723    -3.47709606919971    -2.61046766847418
H   14   1    -7.38882914704939    -3.23143167300626    -0.55085516531072
H   15   1    -8.99509635292969    -4.10070569030618    -3.42342784726207
H   16   1    -5.72587015743214    -4.91328792386916    -2.95118528873326
C   17   6     7.18095927334723     3.45819880795406    -2.61122355892400
H   18   1     7.38882914704939     3.23143167300626    -0.55161105576054
H   19   1     8.99509635292969     4.08180842906053    -3.42418373771189
H   20   1     5.72587015743214     4.89439066262351    -2.93304391793743
C   21   6    -3.45819880795406    -7.18095927334723     2.61197944937383
H   22   1    -4.08180842906053    -8.99509635292969     3.42475065554926
H   23   1    -4.89439066262351    -5.72587015743214     2.93361083577480
H   24   1    -3.21253441176060    -7.38882914704939     0.55274489143528
C   25   6     3.47709606919971     7.18095927334723     2.61273533982365
H   26   1     4.10070569030618     8.99509635292969     3.42550654599909
H   27   1     4.91328792386916     5.72587015743214     2.95326398747028
H   28   1     3.23143167300626     7.38882914704939     0.54802057612387
[GTO]
1 0
 s    3 1.00
           533.1257359    0.15432896729818
            97.1095183    0.53532814229368
           26.28162542    0.44463454219475
 s    3 1.00
           33.32975173  -0.099967229188172
           7.745117521    0.39951282609269
           2.518952599     0.7001154688872
 s    3 1.00
           2.029194274   -0.21962036900156
          0.5661400518     0.2255954336016
          0.2215833792    0.90039842600638
 p    3 1.00
           33.32975173    0.15591627500265
           7.745117521    0.60768371861031
           2.518952599    0.39195739310665
 p    3 1.00
           2.029194274   0.010587604289556
          0.5661400518    0.59516700527507
          0.2215833792    0.46200101198065

2 0
 s    3 1.00
           533.1257359    0.15432896729818
            97.1095183    0.53532814229368
           26.28162542    0.44463454219475
 s    3 1.00
           33.32975173  -0.099967229188172
           7.745117521    0.39951282609269
           2.518952599     0.7001154688872
 s    3 1.00
           2.029194274   -0.21962036900156
          0.5661400518     0.2255954336016
          0.2215833792    0.90039842600638
 p    3 1.00
           33.32975173    0.15591627500265
           7.745117521    0.60768371861031
           2.518952599    0.39195739310665
 p    3 1.00
           2.029194274   0.010587604289556
          0.5661400518    0.59516700527507
          0.2215833792    0.46200101198065

3 0
 s    3 1.00
           533.1257359    0.15432896729818
            97.1095183    0.53532814229368
           26.28162542    0.44463454219475
 s    3 1.00
           33.32975173  -0.099967229188172
           7.745117521    0.39951282609269
           2.518952599     0.7001154688872
 s    3 1.00
           2.029194274   -0.21962036900156
          0.5661400518     0.2255954336016
          0.2215833792    0.90039842600638
 p    3 1.00
           33.32975173    0.15591627500265
           7.745117521    0.60768371861031
           2.518952599    0.39195739310665
 p    3 1.00
           2.029194274   0.010587604289556
          0.5661400518    0.59516700527507
          0.2215833792    0.46200101198065

4 0
 s    3 1.00
           533.1257359    0.15432896729818
            97.1095183    0.53532814229368
           26.28162542    0.44463454219475
 s    3 1.00
           33.32975173  -0.099967229188172
           7.745117521    0.39951282609269
           2.518952599     0.7001154688872
 s    3 1.00
           2.029194274   -0.21962036900156
          0.5661400518     0.2255954336016
          0.2215833792    0.90039842600638
 p    3 1.00
           33.32975173    0.15591627500265
           7.745117521    0.60768371861031
           2.518952599    0.39195739310665
 p    3 1.00
           2.029194274   0.010587604289556
          0.5661400518    0.59516700527507
          0.2215833792    0.46200101198065

5 0
 s    3 1.00
           1447.400411    0.15432896729616
           263.6457916    0.53532814228668
           71.35284019    0.44463454218894
 s    3 1.00
           111.9194891  -0.099967229199427
           26.00768236    0.39951282609771
            8.45850549    0.70011546889599
 s    3 1.00
           8.548569754    -0.2277635023035
            2.60758625    0.21754360440334
            1.00608784    0.91667696111408
 s    3 1.00
          0.5921156814   -0.30884412136822
          0.2185279254   0.019606411691634
          0.0965042359     1.1310344415174
 p    3 1.00
           111.9194891    0.15591627500185
           26.00768236    0.60768371860722
            8.45850549    0.39195739310466
 p    3 1.00
           8.548569754  0.0049515112002182
            2.60758625    0.57776646912546
            1.00608784    0.48464603662135
 p    3 1.00
          0.5921156814   -0.12154686000106
          0.2185279254      0.571522760405
          0.0965042359    0.54989494710481
 d    3 1.00
           6.411803475    0.21976795079435
           1.955804428    0.65554736268314
           0.754610151    0.28657325899263

6 0
 s    3 1.00
           1447.400411    0.15432896729616
           263.6457916    0.53532814228668
           71.35284019    0.44463454218894
 s    3 1.00
           111.9194891  -0.099967229199427
           26.00768236    0.39951282609771
            8.45850549    0.70011546889599
 s    3 1.00
           8.548569754    -0.2277635023035
            2.60758625    0.21754360440334
            1.00608784    0.91667696111408
 s    3 1.00
          0.5921156814   -0.30884412136822
          0.2185279254   0.019606411691634
          0.0965042359     1.1310344415174
 p    3 1.00
           111.9194891    0.15591627500185
           26.00768236    0.60768371860722
            8.45850549    0.39195739310466
 p    3 1.00
           8.548569754  0.0049515112002182
            2.60758625    0.57776646912546
            1.00608784    0.48464603662135
 p    3 1.00
          0.5921156814   -0.12154686000106
          0.2185279254      0.571522760405
          0.0965042359    0.54989494710481
 d    3 1.00
           6.411803475    0.21976795079435
           1.955804428    0.65554736268314
           0.754610151    0.28657325899263

7 0
 s    3 1.00
           1447.400411    0.15432896729616
           263.6457916    0.53532814228668
           71.35284019    0.44463454218894
 s    3 1.00
           111.9194891  -0.099967229199427
           26.00768236    0.39951282609771
            8.45850549    0.70011546889599
 s    3 1.00
           8.548569754    -0.2277635023035
            2.60758625    0.21754360440334
            1.00608784    0.91667696111408
 s    3 1.00
          0.5921156814   -0.30884412136822
          0.2185279254   0.019606411691634
          0.0965042359     1.1310344415174
 p    3 1.00
           111.9194891    0.15591627500185
           26.00768236    0.60768371860722
            8.45850549    0.39195739310466
 p    3 1.00
           8.548569754  0.0049515112002182
            2.60758625    0.57776646912546
            1.00608784    0.48464603662135
 p    3 1.00
          0.5921156814   -0.12154686000106
          0.2185279254      0.571522760405
          0.0965042359    0.54989494710481
 d    3 1.00
           6.411803475    0.21976795079435
           1.955804428    0.65554736268314
           0.754610151    0.28657325899263

8 0
 s    3 1.00
           1447.400411    0.15432896729616
           263.6457916    0.53532814228668
           71.35284019    0.44463454218894
 s    3 1.00
           111.9194891  -0.099967229199427
           26.00768236    0.39951282609771
            8.45850549    0.70011546889599
 s    3 1.00
           8.548569754    -0.2277635023035
            2.60758625    0.21754360440334
            1.00608784    0.91667696111408
 s    3 1.00
          0.5921156814   -0.30884412136822
          0.2185279254   0.019606411691634
          0.0965042359     1.1310344415174
 p    3 1.00
           111.9194891    0.15591627500185
           26.00768236    0.60768371860722
            8.45850549    0.39195739310466
 p    3 1.00
           8.548569754  0.0049515112002182
            2.60758625    0.57776646912546
            1.00608784    0.48464603662135
 p    3 1.00
          0.5921156814   -0.12154686000106
          0.2185279254      0.571522760405
          0.0965042359    0.54989494710481
 d    3 1.00
           6.411803475    0.21976795079435
           1.955804428    0.65554736268314
           0.754610151    0.28657325899263

9 0
 s    3 1.00
           533.1257359    0.15432896729818
            97.1095183    0.53532814229368
           26.28162542    0.44463454219475
 s    3 1.00
           33.32975173  -0.099967229188172
           7.745117521    0.39951282609269
           2.518952599     0.7001154688872
 s    3 1.00
           2.029194274   -0.21962036900156
          0.5661400518     0.2255954336016
          0.2215833792    0.90039842600638
 p    3 1.00
           33.32975173    0.15591627500265
           7.745117521    0.60768371861031
           2.518952599    0.39195739310665
 p    3 1.00
           2.029194274   0.010587604289556
          0.5661400518    0.59516700527507
          0.2215833792    0.46200101198065

10 0
 s    3 1.00
           533.1257359    0.15432896729818
            97.1095183    0.53532814229368
           26.28162542    0.44463454219475
 s    3 1.00
           33.32975173  -0.099967229188172
           7.745117521    0.39951282609269
           2.518952599     0.7001154688872
 s    3 1.00
           2.029194274   -0.21962036900156
          0.5661400518     0.2255954336016
          0.2215833792    0.90039842600638
 p    3 1.00
           33.32975173    0.15591627500265
           7.745117521    0.60768371861031
           2.518952599    0.39195739310665
 p    3 1.00
           2.029194274   0.010587604289556
          0.5661400518    0.59516700527507
          0.2215833792    0.46200101198065

11 0
 s    3 1.00
           533.1257359    0.15432896729818
            97.1095183    0.53532814229368
           26.28162542    0.44463454219475
 s    3 1.00
           33.32975173  -0.099967229188172
           7.745117521    0.39951282609269
           2.518952599     0.7001154688872
 s    3 1.00
           2.029194274   -0.21962036900156
          0.5661400518     0.2255954336016
          0.2215833792    0.90039842600638
 p    3 1.00
           33.32975173    0.15591627500265
           7.745117521    0.60768371861031
           2.518952599    0.39195739310665
 p    3 1.00
           2.029194274   0.010587604289556
          0.5661400518    0.59516700527507
          0.2215833792    0.46200101198065

12 0
 s    3 1.00
           533.1257359    0.15432896729818
            97.1095183    0.53532814229368
           26.28162542    0.44463454219475
 s    3 1.00
           33.32975173  -0.099967229188172
           7.745117521    0.39951282609269
           2.518952599     0.7001154688872
 s    3 1.00
           2.029194274   -0.21962036900156
          0.5661400518     0.2255954336016
          0.2215833792    0.90039842600638
 p    3 1.00
           33.32975173    0.15591627500265
           7.745117521    0.60768371861031
           2.518952599    0.39195739310665
 p    3 1.00
           2.029194274   0.010587604289556
          0.5661400518    0.59516700527507
          0.2215833792    0.46200101198065

13 0
 s    3 1.00
             71.616837    0.15432897000916
             13.045096    0.53532814003178
             3.5305122     0.4446345400264
 s    3 1.00
             2.9412494  -0.099967230075964
             0.6834831    0.39951283030359
             0.2222899    0.70011547053201
 p    3 1.00
             2.9412494    0.15591627210511
             0.6834831    0.60768372820466
             0.2222899    0.39195739529202

14 0
 s    3 1.00
            3.42525091    0.15432897070298
            0.62391373    0.53532814243847
             0.1688554    0.44463454202535

15 0
 s    3 1.00
            3.42525091    0.15432897070298
            0.62391373    0.53532814243847
             0.1688554    0.44463454202535

16 0
 s    3 1.00
            3.42525091    0.15432897070298
            0.62391373    0.53532814243847
             0.1688554    0.44463454202535

17 0
 s    3 1.00
             71.616837    0.15432897000916
             13.045096    0.53532814003178
             3.5305122     0.4446345400264
 s    3 1.00
             2.9412494  -0.099967230075964
             0.6834831    0.39951283030359
             0.2222899    0.70011547053201
 p    3 1.00
             2.9412494    0.15591627210511
             0.6834831    0.60768372820466
             0.2222899    0.39195739529202

18 0
 s    3 1.00
            3.42525091    0.15432897070298
            0.62391373    0.53532814243847
             0.1688554    0.44463454202535

19 0
 s    3 1.00
            3.42525091    0.15432897070298
            0.62391373    0.53532814243847
             0.1688554    0.44463454202535

20 0
 s    3 1.00
            3.42525091    0.15432897070298
            0.62391373    0.53532814243847
             0.1688554    0.44463454202535

21 0
 s    3 1.00
             71.616837    0.15432897000916
             13.045096    0.53532814003178
             3.5305122     0.4446345400264
 s    3 1.00
             2.9412494  -0.099967230075964
             0.6834831    0.39951283030359
             0.2222899    0.70011547053201
 p    3 1.00
             2.9412494    0.15591627210511
             0.6834831    0.60768372820466
             0.2222899    0.39195739529202

22 0
 s    3 1.00
            3.42525091    0.15432897070298
            0.62391373    0.53532814243847
             0.1688554    0.44463454202535

23 0
 s    3 1.00
            3.42525091    0.15432897070298
            0.62391373    0.53532814243847
             0.1688554    0.44463454202535

24 0
 s    3 1.00
            3.42525091    0.15432897070298
            0.62391373    0.53532814243847
             0.1688554    0.44463454202535

25 0
 s    3 1.00
             71.616837    0.15432897000916
             13.045096    0.53532814003178
             3.5305122     0.4446345400264
 s    3 1.00
             2.9412494  -0.099967230075964
             0.6834831    0.39951283030359
             0.2222899    0.70011547053201
 p    3 1.00
             2.9412494    0.15591627210511
             0.6834831    0.60768372820466
             0.2222899    0.39195739529202

26 0
 s    3 1.00
            3.42525091    0.15432897070298
            0.62391373    0.53532814243847
             0.1688554    0.44463454202535

27 0
 s    3 1.00
            3.42525091    0.15432897070298
            0.62391373    0.53532814243847
             0.1688554    0.44463454202535

28 0
 s    3 1.00
            3.42525091    0.15432897070298
            0.62391373    0.53532814243847
             0.1688554    0.44463454202535

[5d]
[7f]
[9g]

[MO]
 Sym= A
 Ene=               0
 Spin= Alpha
 Occup=    1.00000
   1    0.0003956693376546
   2    -0.0045819219851721
   3     0.027968354667818
   4     0.033957201831371
   5    -0.026862677280855
   6     0.049074646553238
   7    -0.096244526722419
   8     0.085802446455356
   9     -0.14607861344405
  10    -0.007404889531466
  11     0.032267158699417
  12      -0.1235772298944
  13    0.0088294722256063
  14    0.00074195268564249
  15      -0.0194607585315
  16    -0.022387197344701
  17    0.0078424645300457
  18     0.061899313462072
  19    0.0065810205194402
  20    -0.034008834062652
  21      0.14246046111768
  22    -0.0052003646061801
  23     -0.01552254212512
  24    -0.021338820106397
  25    0.0063586583233483
  26     0.019349868856529
  27      0.05499038111844
  28    -0.0028302560447117
  29     0.010833331290666
  30    -0.043323184056945
  31     0.033359749007965
  32    -0.030672516178589
  33     0.051492048181131
  34    -0.094914049695253
  35     0.095493746347046
  36      -0.1526434286961
  37    0.00079033197208403
  38    -0.009021525991231
  39     0.025953973048786
  40     -0.19914775808553
  41    -0.074542856900762
  42    -0.020675766025007
  43    -0.045348459576351
  44      0.23751674424358
  45     0.053126289180345
  46      0.12735976925528
  47     0.096111845572672
  48     -0.05549437903377
  49      0.12492979418059
  50    -0.0028137080919015
  51     0.035116655470692
  52    -0.034962659811814
  53    -0.0073863320329645
  54    0.0062223245636479
  55    -0.000109669029209
  56    0.0088089721612786
  57    -0.028709097383741
  58      0.20011666381064
  59     0.034698793801191
  60     0.068252847436731
  61    -0.054399182199094
  62    -0.087895454270471
  63     -0.22201484746346
  64      0.16428780863439
  65     0.037951695321522
  66    -0.088616929962954
  67      0.13802937671012
  68    0.0014255771507556
  69    -0.035672534468957
  70     0.034246791738286
  71    -0.0086979075506967
  72    -0.0072698922181589
  73    0.0017816011047406
  74    0.0018575231055622
  75    0.0016176570926596
  76     0.051305826457294
  77    -0.0048771278143708
  78    -0.020787009274261
  79     0.027339360652988
  80     0.029689480988315
  81     0.055237301543043
  82    -0.092332636043804
  83    -0.010471571756474
  84     0.029260289121971
  85    -0.089067030709154
  86    -0.0050072845029468
  87     0.020038382007265
  88    0.00061501897191808
  89     0.016944674398409
  90    -0.0050162086988661
  91    0.0011525949192211
  92    0.00073330429459118
  93    0.0073544837414079
  94    -0.051029198965576
  95    0.0078498771752232
  96     0.019472302160646
  97     0.014619083769603
  98    -0.013827554497857
  99    -0.043113728813485
 100    -0.046911637682645
 101    -0.0081782734651854
 102    0.0053717077744763
 103    -0.074594685211199
 104    0.0040650095888236
 105    0.0015747553846489
 106     0.020080611511253
 107     0.016837643090703
 108    0.0042415351571108
 109    -0.0028014482068722
 110    0.0071826347261373
 111    -0.035812055987202
 112    -0.0024592155465526
 113    -0.022435870561723
 114      0.03219168092982
 115    0.0024213319417256
 116     0.067643104726473
 117     -0.10485045435369
 118    0.0005648454276269
 119    0.0023176062206959
 120     0.042777543245491
 121    -0.070035254486876
 122    -0.034240223778518
 123    -0.032463975522805
 124      0.21003552201697
 125     0.081374685062703
 126      0.11269410212431
 127    -0.0047074110835147
 128     0.012932302312228
 129    -0.083357515166541
 130     0.029444834293039
 131     0.062788640379401
 132    -0.038947183161356
 133    -0.090216823698958
 134     -0.18473330898698
 135      0.13377237522667
 136     0.001239062340412
 137    -0.0025634235216399
 138    0.0095210409472588
 139     0.022665136057642
 140    0.0041719098105307
 141     0.023034389154384
 142    -0.059226828903134
 143    -0.016334112421023
 144    -0.076727963079246
 145     0.003166224851275
 146     0.012054457336711
 147    -0.053416258155402
 148      0.22164969299468
 149     -0.19082843588619
 150      -0.1342032479347
 151     0.066165602169195
 152     -0.12495678921634
 153    -0.00016375661058647
 154    -0.0027650502759894
 155    -0.031074918704419
 156     0.077076049064744
 157     0.025205493393816
 158     0.018333423850488
 159    -0.015547282095301
 160     0.050614231583121
 161    -0.0068453190786235
 162    -0.0057210171904319
 163     -0.24383882208124
 164     0.044127640674725
 165     -0.19070024696097
 166    -0.048602124711353
 167      0.13841943433168
 168      0.12991551807594
 169    0.00018353182576974
 170    0.0046949285839641
 171    -0.067926847495124
 172     0.022825496623582
 173     0.030961568180117
 174      0.01557555033515
 175    -0.035432935608146
 176    -0.027668094404564
 Sym= A
 Ene=               1
 Spin= Alpha
 Occup=    1.00000
   1    -0.005978067052624
   2     0.034323961721922
   3     -0.12819316387939
   4     0.012879674298503
   5    -0.020025623667921
   6    -0.017841170016526
   7    -0.027981086871217
   8     0.062332268789895
   9     0.063184737028102
  10    -0.0089941847754022
  11     0.017012488437822
  12     -0.04750690255462
  13    0.0065775815506021
  14    -0.0047503952866267
  15    0.0077065406430459
  16    -0.021657829657706
  17    0.0097307504703437
  18    -0.0067678598471986
  19    0.0026366537613359
  20    0.0061000906956948
  21    -9.4935282432185e-05
  22    -0.0032559917351766
  23     0.016812808457696
  24    -0.018844684346897
  25     0.016563752869284
  26    -0.020062192695639
  27     0.016523846389057
  28    -0.012811776034766
  29      0.03895081067787
  30     -0.13025311447125
  31    -0.014990773263068
  32    0.0048367954911128
  33     0.023024890399785
  34     0.054438445479288
  35    -0.024941558079296
  36    -0.066908667199901
  37    -7.5205179891792e-06
  38     0.013329961552309
  39     -0.03048395266381
  40     0.060028407239193
  41    0.0080220556767809
  42     0.017197090763592
  43    0.0030364949943711
  44    -0.038951849667539
  45     -0.05815301185052
  46    0.0090590714078185
  47    -0.016504541185371
  48     0.046970094437693
  49    -0.043723643592857
  50    0.0046159339301602
  51    0.0094028342119541
  52    -0.0064654223859937
  53    0.0039545957666485
  54    -0.0031434967304832
  55    -0.0031284822669152
  56    0.0049758701351232
  57     -0.01337830390169
  58     0.069664060127424
  59     0.016093173058139
  60     0.012838196266449
  61      0.01014488937099
  62    -0.055634253853186
  63     -0.05600666938184
  64    -0.015269579510152
  65     0.052176093400765
  66    -0.022701884889442
  67     0.043933482385935
  68      0.00519881252937
  69     0.006884096722908
  70    -0.0068256793125219
  71    -0.003063519345519
  72    -0.0038485776565572
  73    -0.001596210311151
  74    -0.0029783526583233
  75    0.0035272435600605
  76    -0.035806597493927
  77    -0.0057004701837616
  78    -0.0053506109805005
  79     0.012317871386634
  80    -0.0018598603763726
  81     0.013879796313536
  82    -0.021580203411794
  83     0.018826052885841
  84    0.0080347985881367
  85    -0.011053257124684
  86    -0.0018271385245526
  87     0.010521757576733
  88    0.0099052406559972
  89    -0.011388395070322
  90      0.00997408637099
  91    -0.0015215354179974
  92    0.0090432502999303
  93    -0.003058892850044
  94    -0.042315741111739
  95    -0.00027263317866311
  96    0.0051515720204955
  97    0.00090742447436246
  98    -0.0094889598326727
  99    -0.010196386626459
 100    0.0099711613714424
 101    -0.00050157155328235
 102      0.01950668157307
 103     0.002049549762734
 104    -0.00079792000307403
 105    -0.010148466494355
 106    -0.0095392311964559
 107     0.012196281443991
 108     0.011216701099053
 109     0.014332496217272
 110    -0.061417158172916
 111      0.18903707948684
 112    -0.0099381604130883
 113    0.0072697532642127
 114    -0.0017898988795578
 115     0.026062229434366
 116     -0.01732519667538
 117    0.0085046858161379
 118    0.0019170928501587
 119    -0.0090253406470263
 120     0.042881991306332
 121     0.016314645742572
 122    0.0044727842687382
 123    -0.0059216073355027
 124    -0.042128454283113
 125    -0.0091002259033272
 126     0.006489125507797
 127    0.0062285176986028
 128    -0.027485829412802
 129     0.094204784937216
 130    0.0040018650411674
 131      0.01101226512243
 132    0.0079522222686739
 133    -0.0055079916221383
 134    -0.038595569244604
 135    -0.021139649913131
 136      0.01728801774116
 137     -0.06013847513538
 138      0.20103858583277
 139    0.0060379656656098
 140    -0.011337394794879
 141    0.0054222025161507
 142    -0.024336172118409
 143     0.032256269260876
 144    -0.026554251249731
 145     0.013793828499914
 146    -0.030774479220152
 147     0.059429204961229
 148     0.043486762997242
 149    0.0071569120128275
 150    0.00054712190199911
 151    -0.075678107850702
 152    -0.0028335692310156
 153     0.030578707874264
 154    -0.085688415993493
 155     -0.31027180062693
 156    -0.045337489568294
 157        0.150652884608
 158     0.098176986770135
 159     -0.35584037564735
 160      0.12100928742371
 161     0.004667125899223
 162     0.006792991316544
 163     0.037850459018887
 164     0.030014616277901
 165    0.0095109957317388
 166    -0.031314026910886
 167    -0.0041363959537198
 168    -0.003426811096465
 169     0.026773984631273
 170    -0.089083495888227
 171    -0.044920889507462
 172     -0.31510497443815
 173     -0.14188489359875
 174     -0.35660887740536
 175      0.12751170856683
 176     0.086279280808333
 Sym= A
 Ene=               2
 Spin= Alpha
 Occup=    1.00000
   1    -0.0018359334867861
   2    0.0060281970846475
   3    -0.035234440786524
   4    0.0063059356313034
   5    0.0066488465803795
   6    0.0017170451101207
   7    0.0019979263572251
   8    -0.0063324451016056
   9    -0.0088548079255077
  10    -0.015135438775364
  11     0.036149348852407
  12    -0.075025624478226
  13    -0.00024324023618455
  14    0.0083967043780562
  15    -0.0018012499600846
  16    0.0066923381767121
  17    -0.0060627680869698
  18    0.0033093168524095
  19    -0.012080466291161
  20     0.026350526268132
  21    -0.064612653947517
  22      0.01094881376191
  23    0.0052441229894787
  24    0.0032411246948301
  25    -0.0098980439164964
  26    0.0005911047502594
  27     -0.00737594722588
  28    0.00071900887817018
  29     0.013982977680748
  30    -0.015541103189593
  31    0.0021691633294419
  32    0.0035176270936899
  33    -0.0047122396855731
  34    -0.0074919007598239
  35    0.0019236070729246
  36    0.0037325321442101
  37    -0.0047743749269145
  38    0.0010616380997983
  39     -0.01180430949671
  40    -0.009728700193812
  41    -0.0049736135526325
  42    -0.0048553940538034
  43    -0.0091460613983691
  44     0.012798047704397
  45      0.00562413937266
  46     0.019408323892364
  47    0.0024392253079657
  48    -0.0010498926430033
  49    0.0041997939687961
  50    -0.0016053439964277
  51    -0.001422288072136
  52    -0.0011274979456997
  53    -0.0017803641650122
  54    0.0012412785060789
  55    -0.007746555983662
  56    -0.0034818070420395
  57     0.018715474196407
  58    -0.0048308388593723
  59    0.0059186719764607
  60     0.005168488362629
  61    0.0035132424412644
  62    -0.019146153748871
  63    -0.0056456651542557
  64    0.0021383419913014
  65    -0.012416659640188
  66    0.0008279029501591
  67    -0.0023553849932071
  68    0.00084586368005503
  69    -0.0014677205771094
  70    0.00034377238560908
  71    0.0011761569058353
  72    -0.0027279226155656
  73    0.00061754861124832
  74    -0.0018552332235943
  75    0.0092688669371391
  76    0.0031927121357313
  77    -0.0094254774747478
  78    0.00093246001464796
  79    -0.0026370658357644
  80     0.020009857491914
  81    0.0045542355474902
  82       0.0111618890464
  83    0.0025078103584874
  84    -0.0015992795480961
  85    0.0036287630132028
  86    0.0013746489856707
  87    -0.0018670388173359
  88    -0.00024543620483503
  89    0.0017009626189362
  90    -0.0029007308925829
  91    -0.0028205058902044
  92      0.00220103500708
  93     0.013544963663926
  94     0.010179122243328
  95    -0.0072233485440772
  96    -0.0057532335526167
  97    -0.010660044786033
  98     0.026288633455222
  99     0.017042717642008
 100    0.0092253901394354
 101    0.0025595526706435
 102    -0.0012565688841845
 103    -0.0010057375886356
 104    0.0027268347126792
 105     0.001594951019493
 106    0.0020734571943541
 107    -0.0027688015756598
 108    -0.0051237976080033
 109    -0.020360767242128
 110     0.080227777200274
 111     -0.18951941561913
 112     0.015232355438509
 113    0.0056981965664746
 114     -0.01306465164021
 115    -0.042387335953559
 116    -0.026840560517329
 117     0.016852557725696
 118    0.0083539419575637
 119    -0.033077380938847
 120     0.096594771604125
 121     0.010979331078784
 122    0.0069105158214429
 123    0.0013915686053373
 124    -0.019631638627655
 125    -0.011386441589985
 126    -0.0093898152466981
 127    -0.021940992287026
 128     0.070890918653632
 129     -0.18090969216357
 130    -0.0092700101336639
 131    -0.023600641521222
 132    0.0048272813997348
 133     0.021170000339778
 134     0.049369023387257
 135    -0.0016308601090973
 136    -0.035386104328674
 137      0.11056166920544
 138     -0.31015617876155
 139    0.0094652763858376
 140     0.034700242170885
 141     0.013722296156406
 142    -0.035482096763904
 143    -0.077823887115782
 144    -0.019186054747045
 145     0.092748387871489
 146      -0.2271560484641
 147    -0.0035653724845396
 148    -0.013951545428524
 149     0.016101367749952
 150    -0.052789348602379
 151    -0.060848142302227
 152    -0.059833170172692
 153      0.14561781211096
 154     -0.41268651672395
 155     0.029793659516227
 156     0.021554579954528
 157    -0.0010498684681639