[Molden Format]
made by pyscf v[2.4.0]
[Atoms] (AU)
S   1   16     0.07558904498260    -3.36371250172581    -2.44152615293806
S   2   16    -0.07558904498260     3.36371250172581    -2.44341587906262
S   3   16     3.36371250172581    -0.07558904498260     2.44530560518719
S   4   16    -3.36371250172581     0.07558904498260     2.44719533131176
Fe   5   26     0.09448630622825    -2.58892479065414     1.91996174255810
Fe   6   26    -2.60782205189978     0.09448630622825    -1.90295420743702
Fe   7   26    -0.09448630622825     2.60782205189978     1.90484393356158
Fe   8   26     2.58892479065414    -0.09448630622825    -1.92563092093180
S   9   16     0.45353426989561     6.23609621106470     4.04590363269380
S   10   16    -0.45353426989561    -6.21719894981905     4.04609260530625
S   11   16    -6.21719894981905    -0.45353426989561    -4.04628157791871
S   12   16     6.21719894981905     0.45353426989561    -4.04647055053117
C   13   6    -7.18095927334723    -3.47709606919971    -2.61046766847418
H   14   1    -7.38882914704939    -3.23143167300626    -0.55085516531072
H   15   1    -8.99509635292969    -4.10070569030618    -3.42342784726207
H   16   1    -5.72587015743214    -4.91328792386916    -2.95118528873326
C   17   6     7.18095927334723     3.45819880795406    -2.61122355892400
H   18   1     7.38882914704939     3.23143167300626    -0.55161105576054
H   19   1     8.99509635292969     4.08180842906053    -3.42418373771189
H   20   1     5.72587015743214     4.89439066262351    -2.93304391793743
C   21   6    -3.45819880795406    -7.18095927334723     2.61197944937383
H   22   1    -4.08180842906053    -8.99509635292969     3.42475065554926
H   23   1    -4.89439066262351    -5.72587015743214     2.93361083577480
H   24   1    -3.21253441176060    -7.38882914704939     0.55274489143528
C   25   6     3.47709606919971     7.18095927334723     2.61273533982365
H   26   1     4.10070569030618     8.99509635292969     3.42550654599909
H   27   1     4.91328792386916     5.72587015743214     2.95326398747028
H   28   1     3.23143167300626     7.38882914704939     0.54802057612387
[GTO]
1 0
 s    3 1.00
           533.1257359    0.15432896729818
            97.1095183    0.53532814229368
           26.28162542    0.44463454219475
 s    3 1.00
           33.32975173  -0.099967229188172
           7.745117521    0.39951282609269
           2.518952599     0.7001154688872
 s    3 1.00
           2.029194274   -0.21962036900156
          0.5661400518     0.2255954336016
          0.2215833792    0.90039842600638
 p    3 1.00
           33.32975173    0.15591627500265
           7.745117521    0.60768371861031
           2.518952599    0.39195739310665
 p    3 1.00
           2.029194274   0.010587604289556
          0.5661400518    0.59516700527507
          0.2215833792    0.46200101198065

2 0
 s    3 1.00
           533.1257359    0.15432896729818
            97.1095183    0.53532814229368
           26.28162542    0.44463454219475
 s    3 1.00
           33.32975173  -0.099967229188172
           7.745117521    0.39951282609269
           2.518952599     0.7001154688872
 s    3 1.00
           2.029194274   -0.21962036900156
          0.5661400518     0.2255954336016
          0.2215833792    0.90039842600638
 p    3 1.00
           33.32975173    0.15591627500265
           7.745117521    0.60768371861031
           2.518952599    0.39195739310665
 p    3 1.00
           2.029194274   0.010587604289556
          0.5661400518    0.59516700527507
          0.2215833792    0.46200101198065

3 0
 s    3 1.00
           533.1257359    0.15432896729818
            97.1095183    0.53532814229368
           26.28162542    0.44463454219475
 s    3 1.00
           33.32975173  -0.099967229188172
           7.745117521    0.39951282609269
           2.518952599     0.7001154688872
 s    3 1.00
           2.029194274   -0.21962036900156
          0.5661400518     0.2255954336016
          0.2215833792    0.90039842600638
 p    3 1.00
           33.32975173    0.15591627500265
           7.745117521    0.60768371861031
           2.518952599    0.39195739310665
 p    3 1.00
           2.029194274   0.010587604289556
          0.5661400518    0.59516700527507
          0.2215833792    0.46200101198065

4 0
 s    3 1.00
           533.1257359    0.15432896729818
            97.1095183    0.53532814229368
           26.28162542    0.44463454219475
 s    3 1.00
           33.32975173  -0.099967229188172
           7.745117521    0.39951282609269
           2.518952599     0.7001154688872
 s    3 1.00
           2.029194274   -0.21962036900156
          0.5661400518     0.2255954336016
          0.2215833792    0.90039842600638
 p    3 1.00
           33.32975173    0.15591627500265
           7.745117521    0.60768371861031
           2.518952599    0.39195739310665
 p    3 1.00
           2.029194274   0.010587604289556
          0.5661400518    0.59516700527507
          0.2215833792    0.46200101198065

5 0
 s    3 1.00
           1447.400411    0.15432896729616
           263.6457916    0.53532814228668
           71.35284019    0.44463454218894
 s    3 1.00
           111.9194891  -0.099967229199427
           26.00768236    0.39951282609771
            8.45850549    0.70011546889599
 s    3 1.00
           8.548569754    -0.2277635023035
            2.60758625    0.21754360440334
            1.00608784    0.91667696111408
 s    3 1.00
          0.5921156814   -0.30884412136822
          0.2185279254   0.019606411691634
          0.0965042359     1.1310344415174
 p    3 1.00
           111.9194891    0.15591627500185
           26.00768236    0.60768371860722
            8.45850549    0.39195739310466
 p    3 1.00
           8.548569754  0.0049515112002182
            2.60758625    0.57776646912546
            1.00608784    0.48464603662135
 p    3 1.00
          0.5921156814   -0.12154686000106
          0.2185279254      0.571522760405
          0.0965042359    0.54989494710481
 d    3 1.00
           6.411803475    0.21976795079435
           1.955804428    0.65554736268314
           0.754610151    0.28657325899263

6 0
 s    3 1.00
           1447.400411    0.15432896729616
           263.6457916    0.53532814228668
           71.35284019    0.44463454218894
 s    3 1.00
           111.9194891  -0.099967229199427
           26.00768236    0.39951282609771
            8.45850549    0.70011546889599
 s    3 1.00
           8.548569754    -0.2277635023035
            2.60758625    0.21754360440334
            1.00608784    0.91667696111408
 s    3 1.00
          0.5921156814   -0.30884412136822
          0.2185279254   0.019606411691634
          0.0965042359     1.1310344415174
 p    3 1.00
           111.9194891    0.15591627500185
           26.00768236    0.60768371860722
            8.45850549    0.39195739310466
 p    3 1.00
           8.548569754  0.0049515112002182
            2.60758625    0.57776646912546
            1.00608784    0.48464603662135
 p    3 1.00
          0.5921156814   -0.12154686000106
          0.2185279254      0.571522760405
          0.0965042359    0.54989494710481
 d    3 1.00
           6.411803475    0.21976795079435
           1.955804428    0.65554736268314
           0.754610151    0.28657325899263

7 0
 s    3 1.00
           1447.400411    0.15432896729616
           263.6457916    0.53532814228668
           71.35284019    0.44463454218894
 s    3 1.00
           111.9194891  -0.099967229199427
           26.00768236    0.39951282609771
            8.45850549    0.70011546889599
 s    3 1.00
           8.548569754    -0.2277635023035
            2.60758625    0.21754360440334
            1.00608784    0.91667696111408
 s    3 1.00
          0.5921156814   -0.30884412136822
          0.2185279254   0.019606411691634
          0.0965042359     1.1310344415174
 p    3 1.00
           111.9194891    0.15591627500185
           26.00768236    0.60768371860722
            8.45850549    0.39195739310466
 p    3 1.00
           8.548569754  0.0049515112002182
            2.60758625    0.57776646912546
            1.00608784    0.48464603662135
 p    3 1.00
          0.5921156814   -0.12154686000106
          0.2185279254      0.571522760405
          0.0965042359    0.54989494710481
 d    3 1.00
           6.411803475    0.21976795079435
           1.955804428    0.65554736268314
           0.754610151    0.28657325899263

8 0
 s    3 1.00
           1447.400411    0.15432896729616
           263.6457916    0.53532814228668
           71.35284019    0.44463454218894
 s    3 1.00
           111.9194891  -0.099967229199427
           26.00768236    0.39951282609771
            8.45850549    0.70011546889599
 s    3 1.00
           8.548569754    -0.2277635023035
            2.60758625    0.21754360440334
            1.00608784    0.91667696111408
 s    3 1.00
          0.5921156814   -0.30884412136822
          0.2185279254   0.019606411691634
          0.0965042359     1.1310344415174
 p    3 1.00
           111.9194891    0.15591627500185
           26.00768236    0.60768371860722
            8.45850549    0.39195739310466
 p    3 1.00
           8.548569754  0.0049515112002182
            2.60758625    0.57776646912546
            1.00608784    0.48464603662135
 p    3 1.00
          0.5921156814   -0.12154686000106
          0.2185279254      0.571522760405
          0.0965042359    0.54989494710481
 d    3 1.00
           6.411803475    0.21976795079435
           1.955804428    0.65554736268314
           0.754610151    0.28657325899263

9 0
 s    3 1.00
           533.1257359    0.15432896729818
            97.1095183    0.53532814229368
           26.28162542    0.44463454219475
 s    3 1.00
           33.32975173  -0.099967229188172
           7.745117521    0.39951282609269
           2.518952599     0.7001154688872
 s    3 1.00
           2.029194274   -0.21962036900156
          0.5661400518     0.2255954336016
          0.2215833792    0.90039842600638
 p    3 1.00
           33.32975173    0.15591627500265
           7.745117521    0.60768371861031
           2.518952599    0.39195739310665
 p    3 1.00
           2.029194274   0.010587604289556
          0.5661400518    0.59516700527507
          0.2215833792    0.46200101198065

10 0
 s    3 1.00
           533.1257359    0.15432896729818
            97.1095183    0.53532814229368
           26.28162542    0.44463454219475
 s    3 1.00
           33.32975173  -0.099967229188172
           7.745117521    0.39951282609269
           2.518952599     0.7001154688872
 s    3 1.00
           2.029194274   -0.21962036900156
          0.5661400518     0.2255954336016
          0.2215833792    0.90039842600638
 p    3 1.00
           33.32975173    0.15591627500265
           7.745117521    0.60768371861031
           2.518952599    0.39195739310665
 p    3 1.00
           2.029194274   0.010587604289556
          0.5661400518    0.59516700527507
          0.2215833792    0.46200101198065

11 0
 s    3 1.00
           533.1257359    0.15432896729818
            97.1095183    0.53532814229368
           26.28162542    0.44463454219475
 s    3 1.00
           33.32975173  -0.099967229188172
           7.745117521    0.39951282609269
           2.518952599     0.7001154688872
 s    3 1.00
           2.029194274   -0.21962036900156
          0.5661400518     0.2255954336016
          0.2215833792    0.90039842600638
 p    3 1.00
           33.32975173    0.15591627500265
           7.745117521    0.60768371861031
           2.518952599    0.39195739310665
 p    3 1.00
           2.029194274   0.010587604289556
          0.5661400518    0.59516700527507
          0.2215833792    0.46200101198065

12 0
 s    3 1.00
           533.1257359    0.15432896729818
            97.1095183    0.53532814229368
           26.28162542    0.44463454219475
 s    3 1.00
           33.32975173  -0.099967229188172
           7.745117521    0.39951282609269
           2.518952599     0.7001154688872
 s    3 1.00
           2.029194274   -0.21962036900156
          0.5661400518     0.2255954336016
          0.2215833792    0.90039842600638
 p    3 1.00
           33.32975173    0.15591627500265
           7.745117521    0.60768371861031
           2.518952599    0.39195739310665
 p    3 1.00
           2.029194274   0.010587604289556
          0.5661400518    0.59516700527507
          0.2215833792    0.46200101198065

13 0
 s    3 1.00
             71.616837    0.15432897000916
             13.045096    0.53532814003178
             3.5305122     0.4446345400264
 s    3 1.00
             2.9412494  -0.099967230075964
             0.6834831    0.39951283030359
             0.2222899    0.70011547053201
 p    3 1.00
             2.9412494    0.15591627210511
             0.6834831    0.60768372820466
             0.2222899    0.39195739529202

14 0
 s    3 1.00
            3.42525091    0.15432897070298
            0.62391373    0.53532814243847
             0.1688554    0.44463454202535

15 0
 s    3 1.00
            3.42525091    0.15432897070298
            0.62391373    0.53532814243847
             0.1688554    0.44463454202535

16 0
 s    3 1.00
            3.42525091    0.15432897070298
            0.62391373    0.53532814243847
             0.1688554    0.44463454202535

17 0
 s    3 1.00
             71.616837    0.15432897000916
             13.045096    0.53532814003178
             3.5305122     0.4446345400264
 s    3 1.00
             2.9412494  -0.099967230075964
             0.6834831    0.39951283030359
             0.2222899    0.70011547053201
 p    3 1.00
             2.9412494    0.15591627210511
             0.6834831    0.60768372820466
             0.2222899    0.39195739529202

18 0
 s    3 1.00
            3.42525091    0.15432897070298
            0.62391373    0.53532814243847
             0.1688554    0.44463454202535

19 0
 s    3 1.00
            3.42525091    0.15432897070298
            0.62391373    0.53532814243847
             0.1688554    0.44463454202535

20 0
 s    3 1.00
            3.42525091    0.15432897070298
            0.62391373    0.53532814243847
             0.1688554    0.44463454202535

21 0
 s    3 1.00
             71.616837    0.15432897000916
             13.045096    0.53532814003178
             3.5305122     0.4446345400264
 s    3 1.00
             2.9412494  -0.099967230075964
             0.6834831    0.39951283030359
             0.2222899    0.70011547053201
 p    3 1.00
             2.9412494    0.15591627210511
             0.6834831    0.60768372820466
             0.2222899    0.39195739529202

22 0
 s    3 1.00
            3.42525091    0.15432897070298
            0.62391373    0.53532814243847
             0.1688554    0.44463454202535

23 0
 s    3 1.00
            3.42525091    0.15432897070298
            0.62391373    0.53532814243847
             0.1688554    0.44463454202535

24 0
 s    3 1.00
            3.42525091    0.15432897070298
            0.62391373    0.53532814243847
             0.1688554    0.44463454202535

25 0
 s    3 1.00
             71.616837    0.15432897000916
             13.045096    0.53532814003178
             3.5305122     0.4446345400264
 s    3 1.00
             2.9412494  -0.099967230075964
             0.6834831    0.39951283030359
             0.2222899    0.70011547053201
 p    3 1.00
             2.9412494    0.15591627210511
             0.6834831    0.60768372820466
             0.2222899    0.39195739529202

26 0
 s    3 1.00
            3.42525091    0.15432897070298
            0.62391373    0.53532814243847
             0.1688554    0.44463454202535

27 0
 s    3 1.00
            3.42525091    0.15432897070298
            0.62391373    0.53532814243847
             0.1688554    0.44463454202535

28 0
 s    3 1.00
            3.42525091    0.15432897070298
            0.62391373    0.53532814243847
             0.1688554    0.44463454202535

[5d]
[7f]
[9g]

[MO]
 Sym= A
 Ene=    -254.1599599
 Spin= Alpha
 Occup=    1.00000
   1    1.368402360016e-08
   2    1.9255473690669e-07
   3    2.6070404269965e-06
   4    3.5002171852792e-08
   5    -8.4746428705922e-07
   6    -6.3467345460457e-07
   7    -2.252222352391e-07
   8    4.7482974556778e-06
   9    3.5739728554862e-06
  10    -1.055692924759e-06
  11    2.171678686301e-06
  12    -3.2882005424259e-05
  13    4.8082391424817e-08
  14    1.5000710931363e-06
  15    6.2544389855548e-06
  16    -4.6191044464996e-07
  17    -7.5297817024681e-06
  18    -3.7157332513188e-05
  19    -1.0632654379943e-06
  20    2.1716086728646e-06
  21    -3.3278231428219e-05
  22    -3.6518669638177e-06
  23    5.1965474666835e-06
  24    9.7494425464133e-07
  25    2.2323139722344e-05
  26    -3.0301101382448e-05
  27    -4.6442579304363e-06
  28    -9.3991797136933e-07
  29    9.5868646142302e-07
  30    -3.9633899496119e-05
  31    2.8470864776016e-06
  32    4.3552400402199e-06
  33    1.0435153335912e-06
  34    -2.1434016340182e-05
  35    -2.7892276473095e-05
  36    -4.3843352221343e-06
  37    -3.2396388559411e-06
  38    -5.4698315025567e-07
  39    -3.5808577043874e-06
  40    -3.4595143089883e-05
  41    -4.9147473376296e-08
  42    -2.9394027710458e-07
  43    -1.7955293447053e-07
  44    1.8576281222194e-07
  45    9.5249171901901e-07
  46    6.1831086686268e-07
  47    1.1299450107265e-06
  48    -3.7609271871543e-05
  49    -6.8879317898787e-06
  50    1.9248800080592e-06
  51    -4.2945972990273e-08
  52    -5.4489591971548e-07
  53    3.8860948931736e-06
  54    4.6272590250805e-07
  55    -2.4668547568674e-05
  56    -8.0545196304514e-07
  57    -3.4360353391151e-06
  58    -3.471315723317e-05
  59    -5.5120189554537e-08
  60    -3.0824286493336e-07
  61    -1.880111219958e-07
  62    1.7118215690067e-07
  63    1.0422377068502e-06
  64    5.9710280336534e-07
  65    -1.3330343146153e-05
  66    -2.3234270567601e-05
  67    -2.7452121507905e-05
  68    -1.3468188590393e-06
  69    -2.4723063110424e-06
  70    -3.0011489874135e-06
  71    4.4343450529681e-07
  72    -1.4318596822608e-06
  73      0.99574122352333
  74     0.010948680310015
  75    -0.00091526660937021
  76    0.00027907613200699
  77    1.4381669831361e-06
  78    -1.7115840650644e-06
  79    -2.2875573995551e-06
  80    -1.0897433842476e-06
  81    7.6909327729035e-06
  82    6.1993897618771e-06
  83    1.3796623954586e-06
  84    -6.0551699807666e-05
  85    -4.3530146130446e-05
  86    -3.8346727871759e-07
  87    6.3460844701575e-08
  88    1.1657479011295e-06
  89    -9.0315342045411e-07
  90    6.4010876531348e-07
  91    -0.00023087560334832
  92    -3.3881087937631e-06
  93    -1.1407580479346e-06
  94    -3.4086977414928e-05
  95    1.9923890511813e-07
  96    -4.1530282268202e-07
  97    -4.302609223698e-07
  98    -7.0256433584988e-07
  99    1.4388199394883e-06
 100    1.4977505267232e-06
 101    1.3396476655959e-05
 102    -2.2755282493888e-05
 103    -2.5704110110193e-05
 104    -8.2181590243584e-07
 105    2.1139201965831e-06
 106    -2.7616862255545e-06
 107    4.6012516693494e-07
 108    1.344510726231e-06
 109    -8.4999078775159e-07
 110    1.406970080799e-06
 111    -3.0043109775353e-05
 112    -7.075222301744e-07
 113    -1.9121233369685e-06
 114    -8.4794026401367e-07
 115    4.088435422633e-06
 116    1.4248168263625e-05
 117    7.1168777268459e-06
 118    -7.2427972974235e-08
 119    9.9976746049583e-08
 120    -2.7833061845286e-06
 121    1.6513710315477e-07
 122    -5.2901160177721e-08
 123    -7.0308524013041e-07
 124    -8.6632301537812e-07
 125    -1.529279520097e-07
 126    3.6732083904296e-06
 127    -6.7408182136707e-08
 128    8.7958713436265e-08
 129    -2.6472589138582e-06
 130    5.3709287709568e-07
 131    -4.5757393907213e-07
 132    -1.7813970793413e-07
 133    -3.0259521142225e-06
 134    2.1754235581415e-06
 135    6.3035918189712e-07
 136    -1.7437706094309e-09
 137    -3.0400200441578e-08
 138    -4.5361355953413e-07
 139    -1.2104515906136e-07
 140    -5.7320712142047e-07
 141    -3.3096898924674e-07
 142    7.7544478303912e-07
 143    2.8506691494728e-06
 144    1.5250125850047e-06
 145    -6.8751104633839e-09
 146    1.4444462676405e-08
 147    -6.115340557899e-08
 148    -4.4262106472752e-08
 149    -2.4185777469798e-07
 150    5.1841857391971e-07
 151    -1.0726100778184e-07
 152    -7.9156332691091e-07
 153    -1.0358795724872e-07
 154    6.5723546052017e-07
 155    -1.0194914417588e-06
 156    -1.6586975714124e-07
 157    6.0348681339024e-07
 158    -9.7405359803626e-08
 159    2.7244772502226e-07
 160    -4.7651909801799e-08
 161    -7.7112025206472e-09
 162    1.7380772872898e-08
 163    1.2791301175939e-07
 164    -2.1799620960874e-07
 165    5.5205111737723e-09
 166    -1.0580090055277e-07
 167    5.0286188450701e-07
 168    -7.8742432703186e-07
 169    6.5762951847313e-07
 170    -1.0564056465153e-06
 171    5.3458855754533e-06
 172    8.1579587896339e-06
 173    1.9056162471252e-06
 174    -2.8252856068052e-06
 175    -7.1545325740026e-06
 176    -7.2654571945119e-06
 Sym= A
 Ene=     -254.159318
 Spin= Alpha
 Occup=    1.00000
   1    1.0555152056456e-06
   2    -2.2217884034942e-06
   3    3.233910992796e-05
   4    3.7754532077556e-08
   5    1.4800631303666e-06
   6    -6.2954158497409e-06
   7    -4.2697317550977e-07
   8    -7.4669567013088e-06
   9    3.7148893224457e-05
  10    -1.687623056633e-08
  11    -1.9062373480395e-07
  12    -2.7536223973029e-06
  13    2.6398367120969e-08
  14    -8.6538228454266e-07
  15    6.2902979445175e-07
  16    -1.5890456271656e-07
  17    4.8645189317132e-06
  18    -3.5484695771886e-06
  19    9.3359477809371e-07
  20    -8.7431607886543e-07
  21    4.0188760396268e-05
  22    2.8096530459708e-06
  23    4.3018392878223e-06
  24    -1.063583290048e-06
  25    -2.1474257690655e-05
  26    -2.7725420064929e-05
  27    4.4475426150942e-06
  28    1.0565026638706e-06
  29    -2.1198193443528e-06
  30    3.3473014879068e-05
  31    -3.6605211205863e-06
  32    5.1652312659863e-06
  33    -1.03903540013e-06
  34    2.253558188106e-05
  35    -3.0226550966606e-05
  36    5.0081343726677e-06
  37     -0.99573699217973
  38     -0.01094869105079
  39    0.00091526356126175
  40    -0.00027943569650792
  41    1.5573069482291e-06
  42    -1.6078518686429e-06
  43    2.3063566342554e-06
  44    -1.1517233187983e-06
  45    7.6429041732356e-06
  46    -6.2394542700014e-06
  47    1.7053626708413e-06
  48    -6.0554734404665e-05
  49    4.3594322866707e-05
  50    4.5509772792639e-07
  51    4.4371208366126e-08
  52    1.1917536950705e-06
  53    8.7215718469046e-07
  54    -6.2966054427548e-07
  55      0.00290404355768
  56    3.2775696042464e-05
  57    -1.288741929873e-06
  58    3.4808810480006e-05
  59    2.0480883851585e-07
  60    -4.1345614646077e-07
  61    4.336775937287e-07
  62    -7.2583165328615e-07
  63    1.4210704878338e-06
  64    -1.5038185359245e-06
  65    1.373472755178e-05
  66    -2.2710299787317e-05
  67    2.5863100674275e-05
  68    8.1011709607213e-07
  69    2.1440542276525e-06
  70    -2.7600653803901e-06
  71    -4.4268382706843e-07
  72    -1.3683270627265e-06
  73    -3.1460987688828e-06
  74    4.7786198639096e-07
  75    3.5908687434734e-06
  76    3.4672724097665e-05
  77    -4.8922550827347e-08
  78    -2.9244402099309e-07
  79    1.8367895371717e-07
  80    1.8536665176003e-07
  81    9.4692077390669e-07
  82    -6.3221408342778e-07
  83     1.24126181084e-06
  84    -3.7616699761458e-05
  85    7.2436651413913e-06
  86    -1.9289836040711e-06
  87    -4.9002993427767e-08
  88    -5.9895167332103e-07
  89    -3.8990430339871e-06
  90    -4.7160087135684e-07
  91    7.4792815067006e-05
  92    1.3690366508225e-06
  93    3.2823090516402e-06
  94    3.4580899486131e-05
  95    -6.8175286684268e-08
  96    -3.1681519082697e-07
  97    1.9694386917292e-07
  98    2.2005676914695e-07
  99    1.074814344756e-06
 100    -6.2949935239208e-07
 101    -1.316476880689e-05
 102    -2.3028682614426e-05
 103    2.7586975488242e-05
 104    1.4170388514104e-06
 105    -2.4427700994479e-06
 106    -2.9759301107069e-06
 107    -4.4770714577142e-07
 108    1.3810814584478e-06
 109    6.9109180848063e-08
 110    -9.4802835668299e-08
 111    2.664339606573e-06
 112    1.637599112338e-07
 113    -6.9450689304103e-08
 114    7.0107524223569e-07
 115    -8.5724645962945e-07
 116    -5.6805739671574e-08
 117    -3.6549240440231e-06
 118    8.4831442126825e-07
 119    -1.3864739271793e-06
 120    3.0176711002494e-05
 121    -6.9425165559887e-07
 122    -1.8909878982447e-06
 123    8.3093580561325e-07
 124    4.0368920880276e-06
 125    1.4221400843614e-05
 126    -7.0579696895146e-06
 127    2.9227404077482e-09
 128    2.7454447119775e-08
 129    4.8319150591418e-07
 130    -1.2668164489104e-07
 131    -5.7552571661675e-07
 132    3.2243435471109e-07
 133    8.0063986891557e-07
 134    2.8623647987526e-06
 135    -1.4838376424515e-06
 136    6.6415712539457e-08
 137    -8.7552163228688e-08
 138    2.5994026166759e-06
 139    5.3415666607212e-07
 140    -4.5384707451825e-07
 141    1.9109136636905e-07
 142    -3.0037674931075e-06
 143    2.1578978455619e-06
 144    -7.011104467813e-07
 145    1.0313086999765e-07
 146    -6.3377822264536e-07
 147    -1.0460731958799e-06
 148    -2.0911549391355e-07
 149    -6.0001682257549e-07
 150    2.0393525323646e-08
 151    -2.8370824580348e-07
 152    -2.0933833961409e-08
 153    9.295597675422e-09
 154    -2.8157335458496e-08
 155    -2.9132769669765e-08
 156    -3.2722874243835e-08
 157    2.2889612080297e-07
 158    -5.2969628780174e-07
 159    9.6772230705138e-08
 160    7.8521658715988e-07
 161    -6.4615591453193e-07
 162    9.5619207780033e-07
 163    5.3231960759311e-06
 164    8.0896833019439e-06
 165    -1.9007825187971e-06
 166    2.8179682445015e-06
 167    7.2876876595007e-06
 168    7.1880201725269e-06
 169    7.9022484278352e-09
 170    -1.2520436136586e-08
 171    1.268211262628e-07
 172    -2.081508574987e-07
 173    -2.1875594771197e-09
 174    1.0039823334976e-07
 175    -5.2405898593369e-07
 176    7.8816210587211e-07
 Sym= A
 Ene=    -254.1592394
 Spin= Alpha
 Occup=    1.00000
   1    -1.0654632702157e-06
   2    2.1792576765421e-06
   3    -3.3316249624027e-05
   4    -5.1998822490646e-06
   5    3.6454079354906e-06
   6    -9.6292834992665e-07
   7    3.0325129022719e-05
   8    -2.2289688174898e-05
   9    4.5805702338582e-06
  10    -9.3963178064423e-07
  11    9.5827476307401e-07
  12    -3.9624110476557e-05
  13    -4.3570274865102e-06
  14    -2.8432214291668e-06
  15    -1.0463266092459e-06
  16    2.7906710038504e-05
  17    2.1416241416632e-05
  18    4.4033849437078e-06
  19    1.1040244129452e-08
  20    1.9396239988781e-07
  21    2.4824889965545e-06
  22    8.3462743136694e-07
  23    -5.2095152635473e-08
  24    6.3942410957105e-07
  25    -4.6574491703252e-06
  26    3.3082021969173e-07
  27    -3.5966748326133e-06
  28    -1.0589944210749e-06
  29    2.1830840197843e-06
  30    -3.2935350602462e-05
  31    -1.4873587548613e-06
  32    -6.3379207183835e-08
  33    -6.2503983681225e-06
  34    7.455369978755e-06
  35    5.5146488575946e-07
  36    3.711135254414e-05
  37    0.0029043156527224
  38    3.1088287617117e-05
  39    -4.0622293908413e-06
  40    -3.3309737694293e-05
  41    4.0773616585706e-07
  42    -1.8996789814142e-07
  43    4.1882100892146e-07
  44    -1.4251531275749e-06
  45    6.6291285522068e-07
  46    -1.4626383564352e-06
  47    2.281328821974e-05
  48    -1.3230151471773e-05
  49    2.558231795795e-05
  50    -8.176469147374e-07
  51    -2.7726507516035e-06
  52    2.1230318753026e-06
  53    -4.6170499258991e-07
  54    1.3598735647167e-06
  55      0.99573700382009
  56     0.010948663331529
  57    -0.00091525747780703
  58    0.00027910400401752
  59    1.7610648486637e-06
  60    -1.4253624788176e-06
  61    2.317817554836e-06
  62    -7.7140832711763e-06
  63    1.0894054700111e-06
  64    -6.1924738850329e-06
  65    6.055289955282e-05
  66    -1.3933087792492e-06
  67    4.3326529081923e-05
  68    -3.9011452746978e-07
  69    1.1749434511919e-06
  70    6.9391283814073e-08
  71    9.1073478390544e-07
  72    6.4375787003754e-07
  73    2.4688674289962e-05
  74    -2.6471370698428e-07
  75    -3.4945639987165e-06
  76    -3.4832496189285e-05
  77    3.0741624007634e-07
  78    5.4616608532351e-08
  79    1.8522427286479e-07
  80    -1.0391252184492e-06
  81    -1.6891240896426e-07
  82    -5.8720113148033e-07
  83    2.3193583902513e-05
  84    1.3406393615142e-05
  85    2.7368035247153e-05
  86    -1.3397779990293e-06
  87    -3.0005468096127e-06
  88    -2.4738068251005e-06
  89    -4.2869133322829e-07
  90    -1.4311812773083e-06
  91    -9.9971853183447e-06
  92    -6.2451478644274e-07
  93    -3.5846646512717e-06
  94    -3.4743404138953e-05
  95    2.9688209957681e-07
  96     5.10391823383e-08
  97    1.7898039151419e-07
  98    -9.6294673584976e-07
  99    -1.9251053903551e-07
 100    -6.1675574294975e-07
 101    3.7727000137508e-05
 102    -1.0495581289454e-06
 103    6.7502474752799e-06
 104    1.9219757597064e-06
 105    -5.2797104479013e-07
 106    -3.5456158401194e-08
 107    -3.8832212448496e-06
 108    4.5962867161177e-07
 109    -6.6475373213754e-08
 110    8.8718348482755e-08
 111    -2.5907462068625e-06
 112    4.5286220221996e-07
 113    -5.2970916722041e-07
 114    1.7753789127125e-07
 115    -2.1517840094466e-06
 116    2.9759546749023e-06
 117    -6.3451694217595e-07
 118    -4.3273204966352e-09
 119    -2.5929593163667e-08
 120    -5.4302149236213e-07
 121    5.7538991425061e-07
 122    1.262346000868e-07
 123    3.2702862133256e-07
 124    -2.8626948836083e-06
 125    -8.1491204630412e-07
 126    -1.4967550961452e-06
 127    -8.4101223939355e-07
 128    1.3512230644472e-06
 129    -3.0172912719334e-05
 130    1.8487956774185e-06
 131    6.9635240543111e-07
 132    8.0495034732096e-07
 133    -1.4054079711454e-05
 134    -4.0513060960534e-06
 135    -6.9955509458307e-06