[Molden Format]
made by pyscf v[2.4.0]
[Atoms] (AU)
Fe   1   26   -33.71838308366915    -1.00338210386671    11.51041206875748
Cl   2   17   -37.49761671323523     0.58750632072280    13.30558658346014
Cl   3   17   -33.71835804599340     0.22427505908582     7.20114068074218
Cl   4   17   -33.71840879383931    -5.42450500314257    12.20435003786495
Cl   5   17   -29.93914956633488     0.58754450973304    13.30555331318486
[GTO]
1 0
 s   21 1.00
               4316265  0.00015003000025155
              646342.4  0.00043597000073097
              147089.7  0.0012036500020181
              41661.52  0.0031263500052418
              13590.77  0.0081459100136578
               4905.75   0.021338920035778
              1912.746   0.054708380091726
              792.6043    0.12845394021537
              344.8065    0.25203824042258
              155.8999    0.35484986059496
              72.23091    0.27043078045342
              32.72506   0.064760860108581
              15.66762  -0.0011046600018521
              7.503483  0.0018455500030943
              3.312223  -0.00085600000143521
              1.558471  0.00037119000062235
              0.683914  -0.00014687000024625
              0.146757  6.0970000102225e-05
              0.070583  -5.7890000097061e-05
              0.031449  2.7700000046443e-05
               0.01258  -7.2200000121054e-06
 s   21 1.00
               4316265  -4.6220000480211e-05
              646342.4  -0.00013445000139689
              147089.7  -0.0003718400038633
              41661.52  -0.00096889001006646
              13590.77  -0.0025394800263844
               4905.75  -0.0067300100699227
              1912.746  -0.017681600183706
              792.6043  -0.043754100454591
              344.8065  -0.096011110997525
              155.8999    -0.1699859917661
              72.23091   -0.18456376191756
              32.72506   0.058263000605334
              15.66762    0.52163758541965
              7.503483    0.49331062512534
              3.312223   0.086326700896907
              1.558471  -0.0028501700296124
              0.683914  0.0016556900172021
              0.146757  -0.00049176000510923
              0.070583  0.00047608000494632
              0.031449  -0.00022820000237093
               0.01258  6.2970000654238e-05
 s   21 1.00
               4316265  1.7099999823348e-05
              646342.4  4.9749999486056e-05
              147089.7  0.00013757999857873
              41661.52  0.00035878999629351
              13590.77  0.00094020999028713
               4905.75  0.0024985999741881
              1912.746  0.0065710299321178
              792.6043    0.01640472983053
              344.8065   0.036371569624262
              155.8999   0.066649369311477
              72.23091   0.075536819219665
              32.72506  -0.025868059732769
              15.66762   -0.31230229677375
              7.503483    -0.4499765353515
              3.312223    0.14773373847383
              1.558471    0.72995708245916
              0.683914      0.384588466027
              0.146757   0.015828899836479
              0.070583  -0.0094953699019078
              0.031449   0.003080379968178
               0.01258  -0.0010052599896151
 s   21 1.00
               4316265  -3.530000014952e-06
              646342.4  -1.0260000043458e-05
              147089.7  -2.8380000120209e-05
              41661.52  -7.3970000313315e-05
              13590.77  -0.00019410000082215
               4905.75  -0.00051496000218121
              1912.746  -0.0013580100057521
              792.6043  -0.0033829700143292
              344.8065  -0.0075412100319423
              155.8999  -0.013800660058455
              72.23091  -0.015887360067294
              32.72506  0.0057036300241588
              15.66762   0.068072610288335
              7.503483    0.10526256044586
              3.312223  -0.045624630193252
              1.558471   -0.21341607090397
              0.683914   -0.24353659103155
              0.146757    0.34358715145533
              0.070583    0.46401833196544
              0.031449    0.34688312146929
               0.01258   0.012258410051923
 s   21 1.00
               4316265  4.2300000083928e-06
              646342.4  1.2340000024484e-05
              147089.7  3.400000006746e-05
              41661.52  8.934000017726e-05
              13590.77  0.00023098000045829
               4905.75  0.00062709000124422
              1912.746  0.0016013500031773
              792.6043  0.0041618100082575
              344.8065  0.0087735900174078
              155.8999   0.017383460034491
              72.23091   0.017189430034106
              32.72506  -0.0019660200039008
              15.66762   -0.09285258018423
              7.503483   -0.11350600022521
              3.312223   0.018124570035961
              1.558471     0.4126803608188
              0.683914    0.10339104020514
              0.146757   -0.89083095176751
              0.070583   -0.80961283160636
              0.031449      1.523089463022
               0.01258     0.0914261901814
 p   15 1.00
              7721.489  0.0003528699992897
              1829.126   0.001969279996036
               593.628  0.0096173699806408
              226.2054   0.037242729925033
              95.26145    0.11332296977189
               42.8592    0.25335171949002
              20.04971    0.38104214923299
              9.620885    0.30703249938196
              4.541371    0.08654533982579
                2.1135   0.003599239992755
              0.947201  0.0014405899971002
              0.391243  -0.00029900999939811
              0.156497  0.00020350999959035
              0.062599  -9.6259999806235e-05
               0.02504  2.8809999942007e-05
 p   15 1.00
              7721.489  -0.00012803000093384
              1829.126  -0.0007151700052164
               593.628  -0.0035210800256825
              226.2054  -0.013790650100588
              95.26145  -0.043314520315933
               42.8592   -0.10061222073386
              20.04971    -0.1616137711788
              9.620885   -0.11214083081795
              4.541371    0.18501865134951
                2.1135    0.47893080349329
              0.947201    0.40514792295512
              0.391243   0.098721600720068
              0.156497  -0.0014859200108382
              0.062599  0.0022297700162638
               0.02504  -0.00072259000527052
 p   15 1.00
              7721.489  -0.0001366300005471
              1829.126  -0.00077790000311493
               593.628  -0.0037504200150177
              226.2054  -0.015167410060734
              95.26145  -0.047052060188409
               42.8592   -0.11529630046168
              20.04971   -0.17017078068141
              9.620885    -0.1322083005294
              4.541371     0.5379758221542
                2.1135     0.6119970124506
              0.947201   -0.64465308258137
              0.391243   -0.61225551245164
              0.156497    0.10798966043242
              0.062599    0.37358045149592
               0.02504    0.18782870075212
 p   15 1.00
              7721.489  3.8450000073416e-05
              1829.126  0.00021618000041277
               593.628  0.0010569700020182
              226.2054  0.0041842400079893
              95.26145   0.013078170024971
               42.8592   0.030955100059105
              20.04971   0.048968490093499
              9.620885    0.03516849006715
              4.541371  -0.083386120159215
                2.1135   -0.17709305033814
              0.947201   -0.11907766022736
              0.391243    0.12237413023366
              0.156497    0.54998130105012
              0.062599    0.39970337076318
               0.02504   0.082982750158445
 d   10 1.00
              217.3688  0.00096699000005415
              64.99976  0.0079329400004442
              24.77314   0.035483140001987
              10.43614    0.10769519000603
              4.679653    0.22555488001263
              2.125622    0.31942979001789
              0.945242    0.32354390001812
              0.402685    0.24338270001363
              0.156651    0.10680569000598
               0.06266    0.02052711000115
 d   10 1.00
              217.3688  -0.00098326999334898
              64.99976  -0.0078969399465836
              24.77314   -0.03644789975346
              10.43614   -0.10760711927213
              4.679653   -0.26104795823422
              2.125622    -0.2908550880326
              0.945242   0.012548209915122
              0.402685    0.40386045726821
              0.156651    0.38672482738412
               0.06266    0.24394499834991
 f    6 1.00
               11.2749   0.038021959880794
                 4.469    0.25501828920047
                1.7713    0.50897997840425
                0.7021    0.35473515888783
                0.2783    0.12763296959985
                0.1103   0.019468309938963

2 0
 s   17 1.00
             399432.47  0.00030483999979349
             56908.833  0.00097689999933823
             16874.769  0.0021382899985515
             6010.0278  0.0059694099959562
              2303.283   0.016181889989038
             915.65994    0.04523016996936
             371.72009    0.11792450992012
             152.89109    0.26154411982282
             63.436303    0.40192153972773
             26.481723    0.26874481981795
             11.104112   0.032816939977769
             4.6716289  0.0035591799975889
              1.970452  -0.0017077799988431
             0.8327946  0.0012973499991211
             0.3525409  -0.00065904999955354
             0.1494341  0.0002457899998335
             0.0597736  -1.459999999011e-06
 s   17 1.00
             399432.47  -8.5440000252327e-05
             56908.833  -0.00027415000080964
             16874.769  -0.00060181000177731
             6010.0278  -0.001684910004976
              2303.283  -0.0046144000136276
             915.65994  -0.013129400038775
             371.72009  -0.035909770106051
             152.89109   -0.08838331026102
             63.436303   -0.17459524051563
             26.481723   -0.17768036052474
             11.104112    0.15212083044925
             4.6716289    0.62550754184729
              1.970452    0.36355752107368
             0.8327946  0.0096020400283574
             0.3525409   0.026352210077825
             0.1494341  0.0047660600140755
             0.0597736  0.00086954000256799
 s   17 1.00
             399432.47  2.8049999954254e-05
             56908.833  8.9929999853334e-05
             16874.769   0.000198049999677
             6010.0278  0.00055164999910032
              2303.283  0.0015233499975156
             915.65994  0.0043047099929795
             371.72009   0.011934569980536
             152.89109   0.029371349952099
             63.436303   0.060214619901797
             26.481723   0.062571659897953
             11.104112  -0.056611739907673
             4.6716289   -0.32750974946587
              1.970452   -0.34199198944225
             0.8327946    0.31850882948055
             0.3525409    0.66176116892074
             0.1494341    0.27830910954611
             0.0597736   0.016827229972557
 s   17 1.00
             399432.47  -2.5939999936789e-05
             56908.833  -8.3269999797086e-05
             16874.769  -0.00018238999955555
             6010.0278  -0.00051267999875069
              2303.283  -0.0013955699965992
             915.65994  -0.0039968199902605
             371.72009  -0.010840949973583
             152.89109  -0.026894559934463
             63.436303  -0.053084409870643
             26.481723   -0.05725504986048
             11.104112   0.064326739843247
             4.6716289    0.30253799926277
              1.970452     0.5130468087498
             0.8327946    -1.1309193472442
             0.3525409   -0.72817380822557
             0.1494341     1.1741330371388
             0.0597736    0.32946195919716
 p   12 1.00
             1288.9716  0.00093569998795284
              312.2443   0.006125189921138
             111.34634   0.025628039670038
             43.736087   0.092817558804972
             17.856524    0.24346159686543
             7.4327659    0.41401587466954
             3.1282538    0.34722987552941
             1.3257214   0.076468709015463
             0.5644191  0.0021224899726729
             0.2410741  -0.0007908799898174
             0.1032089  -0.00020295999738689
             0.0412836  -9.273999880597e-05
 p   12 1.00
             1288.9716  -0.00024782000099467
              312.2443  -0.0016265400065284
             111.34634  -0.0068710200275781
             43.736087  -0.025357550101777
             17.856524  -0.068740670275903
             7.4327659   -0.12202766048978
             3.1282538   -0.10596481042531
             1.3257214    0.13708383055021
             0.5644191    0.42571611170869
             0.2410741    0.41428846166282
             0.1032089    0.18204070073065
             0.0412836   0.030111650120859
 p   12 1.00
             1288.9716  0.00024047000076546
              312.2443  0.0015279500048637
             111.34634  0.0067375300214468
             43.736087   0.023887840076039
             17.856524   0.068773230218917
             7.4327659    0.11190534035621
             3.1282538    0.12059088038386
             1.3257214   -0.22523997071698
             0.5644191   -0.64105309204059
             0.2410741   0.051740530164699
             0.1032089    0.69480634221169
             0.0412836    0.30411632096806
 d    5 1.00
             3.6204561   0.026701639990782
             1.4775717    0.17231496994051
              0.603023    0.58274039979882
             0.2461043     0.3374559298835
             0.0984417   0.049178809983022

3 0
 s   17 1.00
             399432.47  0.00030483999979349
             56908.833  0.00097689999933823
             16874.769  0.0021382899985515
             6010.0278  0.0059694099959562
              2303.283   0.016181889989038
             915.65994    0.04523016996936
             371.72009    0.11792450992012
             152.89109    0.26154411982282
             63.436303    0.40192153972773
             26.481723    0.26874481981795
             11.104112   0.032816939977769
             4.6716289  0.0035591799975889
              1.970452  -0.0017077799988431
             0.8327946  0.0012973499991211
             0.3525409  -0.00065904999955354
             0.1494341  0.0002457899998335
             0.0597736  -1.459999999011e-06
 s   17 1.00
             399432.47  -8.5440000252327e-05
             56908.833  -0.00027415000080964
             16874.769  -0.00060181000177731
             6010.0278  -0.001684910004976
              2303.283  -0.0046144000136276
             915.65994  -0.013129400038775
             371.72009  -0.035909770106051
             152.89109   -0.08838331026102
             63.436303   -0.17459524051563
             26.481723   -0.17768036052474
             11.104112    0.15212083044925
             4.6716289    0.62550754184729
              1.970452    0.36355752107368
             0.8327946  0.0096020400283574
             0.3525409   0.026352210077825
             0.1494341  0.0047660600140755
             0.0597736  0.00086954000256799
 s   17 1.00
             399432.47  2.8049999954254e-05
             56908.833  8.9929999853334e-05
             16874.769   0.000198049999677
             6010.0278  0.00055164999910032
              2303.283  0.0015233499975156
             915.65994  0.0043047099929795
             371.72009   0.011934569980536
             152.89109   0.029371349952099
             63.436303   0.060214619901797
             26.481723   0.062571659897953
             11.104112  -0.056611739907673
             4.6716289   -0.32750974946587
              1.970452   -0.34199198944225
             0.8327946    0.31850882948055
             0.3525409    0.66176116892074
             0.1494341    0.27830910954611
             0.0597736   0.016827229972557
 s   17 1.00
             399432.47  -2.5939999936789e-05
             56908.833  -8.3269999797086e-05
             16874.769  -0.00018238999955555
             6010.0278  -0.00051267999875069
              2303.283  -0.0013955699965992
             915.65994  -0.0039968199902605
             371.72009  -0.010840949973583
             152.89109  -0.026894559934463
             63.436303  -0.053084409870643
             26.481723   -0.05725504986048
             11.104112   0.064326739843247
             4.6716289    0.30253799926277
              1.970452     0.5130468087498
             0.8327946    -1.1309193472442
             0.3525409   -0.72817380822557
             0.1494341     1.1741330371388
             0.0597736    0.32946195919716
 p   12 1.00
             1288.9716  0.00093569998795284
              312.2443   0.006125189921138
             111.34634   0.025628039670038
             43.736087   0.092817558804972
             17.856524    0.24346159686543
             7.4327659    0.41401587466954
             3.1282538    0.34722987552941
             1.3257214   0.076468709015463
             0.5644191  0.0021224899726729
             0.2410741  -0.0007908799898174
             0.1032089  -0.00020295999738689
             0.0412836  -9.273999880597e-05
 p   12 1.00
             1288.9716  -0.00024782000099467
              312.2443  -0.0016265400065284
             111.34634  -0.0068710200275781
             43.736087  -0.025357550101777
             17.856524  -0.068740670275903
             7.4327659   -0.12202766048978
             3.1282538   -0.10596481042531
             1.3257214    0.13708383055021
             0.5644191    0.42571611170869
             0.2410741    0.41428846166282
             0.1032089    0.18204070073065
             0.0412836   0.030111650120859
 p   12 1.00
             1288.9716  0.00024047000076546
              312.2443  0.0015279500048637
             111.34634  0.0067375300214468
             43.736087   0.023887840076039
             17.856524   0.068773230218917
             7.4327659    0.11190534035621
             3.1282538    0.12059088038386
             1.3257214   -0.22523997071698
             0.5644191   -0.64105309204059
             0.2410741   0.051740530164699
             0.1032089    0.69480634221169
             0.0412836    0.30411632096806
 d    5 1.00
             3.6204561   0.026701639990782
             1.4775717    0.17231496994051
              0.603023    0.58274039979882
             0.2461043     0.3374559298835
             0.0984417   0.049178809983022

4 0
 s   17 1.00
             399432.47  0.00030483999979349
             56908.833  0.00097689999933823
             16874.769  0.0021382899985515
             6010.0278  0.0059694099959562
              2303.283   0.016181889989038
             915.65994    0.04523016996936
             371.72009    0.11792450992012
             152.89109    0.26154411982282
             63.436303    0.40192153972773
             26.481723    0.26874481981795
             11.104112   0.032816939977769
             4.6716289  0.0035591799975889
              1.970452  -0.0017077799988431
             0.8327946  0.0012973499991211
             0.3525409  -0.00065904999955354
             0.1494341  0.0002457899998335
             0.0597736  -1.459999999011e-06
 s   17 1.00
             399432.47  -8.5440000252327e-05
             56908.833  -0.00027415000080964
             16874.769  -0.00060181000177731
             6010.0278  -0.001684910004976
              2303.283  -0.0046144000136276
             915.65994  -0.013129400038775
             371.72009  -0.035909770106051
             152.89109   -0.08838331026102
             63.436303   -0.17459524051563
             26.481723   -0.17768036052474
             11.104112    0.15212083044925
             4.6716289    0.62550754184729
              1.970452    0.36355752107368
             0.8327946  0.0096020400283574
             0.3525409   0.026352210077825
             0.1494341  0.0047660600140755
             0.0597736  0.00086954000256799
 s   17 1.00
             399432.47  2.8049999954254e-05
             56908.833  8.9929999853334e-05
             16874.769   0.000198049999677
             6010.0278  0.00055164999910032
              2303.283  0.0015233499975156
             915.65994  0.0043047099929795
             371.72009   0.011934569980536
             152.89109   0.029371349952099
             63.436303   0.060214619901797
             26.481723   0.062571659897953
             11.104112  -0.056611739907673
             4.6716289   -0.32750974946587
              1.970452   -0.34199198944225
             0.8327946    0.31850882948055
             0.3525409    0.66176116892074
             0.1494341    0.27830910954611
             0.0597736   0.016827229972557
 s   17 1.00
             399432.47  -2.5939999936789e-05
             56908.833  -8.3269999797086e-05
             16874.769  -0.00018238999955555
             6010.0278  -0.00051267999875069
              2303.283  -0.0013955699965992
             915.65994  -0.0039968199902605
             371.72009  -0.010840949973583
             152.89109  -0.026894559934463
             63.436303  -0.053084409870643
             26.481723   -0.05725504986048
             11.104112   0.064326739843247
             4.6716289    0.30253799926277
              1.970452     0.5130468087498
             0.8327946    -1.1309193472442
             0.3525409   -0.72817380822557
             0.1494341     1.1741330371388
             0.0597736    0.32946195919716
 p   12 1.00
             1288.9716  0.00093569998795284
              312.2443   0.006125189921138
             111.34634   0.025628039670038
             43.736087   0.092817558804972
             17.856524    0.24346159686543
             7.4327659    0.41401587466954
             3.1282538    0.34722987552941
             1.3257214   0.076468709015463
             0.5644191  0.0021224899726729
             0.2410741  -0.0007908799898174
             0.1032089  -0.00020295999738689
             0.0412836  -9.273999880597e-05
 p   12 1.00
             1288.9716  -0.00024782000099467
              312.2443  -0.0016265400065284
             111.34634  -0.0068710200275781
             43.736087  -0.025357550101777
             17.856524  -0.068740670275903
             7.4327659   -0.12202766048978
             3.1282538   -0.10596481042531
             1.3257214    0.13708383055021
             0.5644191    0.42571611170869
             0.2410741    0.41428846166282
             0.1032089    0.18204070073065
             0.0412836   0.030111650120859
 p   12 1.00
             1288.9716  0.00024047000076546
              312.2443  0.0015279500048637
             111.34634  0.0067375300214468
             43.736087   0.023887840076039
             17.856524   0.068773230218917
             7.4327659    0.11190534035621
             3.1282538    0.12059088038386
             1.3257214   -0.22523997071698
             0.5644191   -0.64105309204059
             0.2410741   0.051740530164699
             0.1032089    0.69480634221169
             0.0412836    0.30411632096806
 d    5 1.00
             3.6204561   0.026701639990782
             1.4775717    0.17231496994051
              0.603023    0.58274039979882
             0.2461043     0.3374559298835
             0.0984417   0.049178809983022

5 0
 s   17 1.00
             399432.47  0.00030483999979349
             56908.833  0.00097689999933823
             16874.769  0.0021382899985515
             6010.0278  0.0059694099959562
              2303.283   0.016181889989038
             915.65994    0.04523016996936
             371.72009    0.11792450992012
             152.89109    0.26154411982282
             63.436303    0.40192153972773
             26.481723    0.26874481981795
             11.104112   0.032816939977769
             4.6716289  0.0035591799975889
              1.970452  -0.0017077799988431
             0.8327946  0.0012973499991211
             0.3525409  -0.00065904999955354
             0.1494341  0.0002457899998335
             0.0597736  -1.459999999011e-06
 s   17 1.00
             399432.47  -8.5440000252327e-05
             56908.833  -0.00027415000080964
             16874.769  -0.00060181000177731
             6010.0278  -0.001684910004976
              2303.283  -0.0046144000136276
             915.65994  -0.013129400038775
             371.72009  -0.035909770106051
             152.89109   -0.08838331026102
             63.436303   -0.17459524051563
             26.481723   -0.17768036052474
             11.104112    0.15212083044925
             4.6716289    0.62550754184729
              1.970452    0.36355752107368
             0.8327946  0.0096020400283574
             0.3525409   0.026352210077825
             0.1494341  0.0047660600140755
             0.0597736  0.00086954000256799
 s   17 1.00
             399432.47  2.8049999954254e-05
             56908.833  8.9929999853334e-05
             16874.769   0.000198049999677
             6010.0278  0.00055164999910032
              2303.283  0.0015233499975156
             915.65994  0.0043047099929795
             371.72009   0.011934569980536
             152.89109   0.029371349952099
             63.436303   0.060214619901797
             26.481723   0.062571659897953
             11.104112  -0.056611739907673
             4.6716289   -0.32750974946587
              1.970452   -0.34199198944225
             0.8327946    0.31850882948055
             0.3525409    0.66176116892074
             0.1494341    0.27830910954611
             0.0597736   0.016827229972557
 s   17 1.00
             399432.47  -2.5939999936789e-05
             56908.833  -8.3269999797086e-05
             16874.769  -0.00018238999955555
             6010.0278  -0.00051267999875069
              2303.283  -0.0013955699965992
             915.65994  -0.0039968199902605
             371.72009  -0.010840949973583
             152.89109  -0.026894559934463
             63.436303  -0.053084409870643
             26.481723   -0.05725504986048
             11.104112   0.064326739843247
             4.6716289    0.30253799926277
              1.970452     0.5130468087498
             0.8327946    -1.1309193472442
             0.3525409   -0.72817380822557
             0.1494341     1.1741330371388
             0.0597736    0.32946195919716
 p   12 1.00
             1288.9716  0.00093569998795284
              312.2443   0.006125189921138
             111.34634   0.025628039670038
             43.736087   0.092817558804972
             17.856524    0.24346159686543
             7.4327659    0.41401587466954
             3.1282538    0.34722987552941
             1.3257214   0.076468709015463
             0.5644191  0.0021224899726729
             0.2410741  -0.0007908799898174
             0.1032089  -0.00020295999738689
             0.0412836  -9.273999880597e-05
 p   12 1.00
             1288.9716  -0.00024782000099467
              312.2443  -0.0016265400065284
             111.34634  -0.0068710200275781
             43.736087  -0.025357550101777
             17.856524  -0.068740670275903
             7.4327659   -0.12202766048978
             3.1282538   -0.10596481042531
             1.3257214    0.13708383055021
             0.5644191    0.42571611170869
             0.2410741    0.41428846166282
             0.1032089    0.18204070073065
             0.0412836   0.030111650120859
 p   12 1.00
             1288.9716  0.00024047000076546
              312.2443  0.0015279500048637
             111.34634  0.0067375300214468
             43.736087   0.023887840076039
             17.856524   0.068773230218917
             7.4327659    0.11190534035621
             3.1282538    0.12059088038386
             1.3257214   -0.22523997071698
             0.5644191   -0.64105309204059
             0.2410741   0.051740530164699
             0.1032089    0.69480634221169
             0.0412836    0.30411632096806
 d    5 1.00
             3.6204561   0.026701639990782
             1.4775717    0.17231496994051
              0.603023    0.58274039979882
             0.2461043     0.3374559298835
             0.0984417   0.049178809983022

[5d]
[7f]
[9g]

[MO]
 Sym= A
 Ene=               0
 Spin= Alpha
 Occup=    1.00000
   1    -3.6537781745022e-10
   2    1.2573565313018e-08
   3    -3.4693595756038e-08
   4    -8.2863851463601e-10
   5    1.2788823710501e-11
   6        1.000004120518
   7    -1.1418305211931e-10
   8    -5.5492585093048e-10
   9    9.9237610176429e-05
  10    9.2153073108048e-09
  11    -3.0117847729931e-09
  12    0.0029983369272414
  13    1.0710794482868e-10
  14    -1.9041846953258e-11
  15    0.00076212206327469
  16    9.4299427718036e-09
  17    -8.1749359430242e-09
  18    -1.3628293271252e-09
  19    4.1420391655787e-05
  20    -6.5119225146298e-09
  21    3.5119668379151e-09
  22    3.6605329835078e-05
  23    2.5468432578014e-09
  24    0.0001381777021115
  25    -6.0904923785463e-10
  26    1.5871438910064e-09
  27    0.00012173923624431
  28    -1.1854007448637e-09
  29    -5.5086976702251e-05
  30    8.6460380442504e-10
  31    2.0916809049975e-09
  32    -8.3819220982118e-05
  33    5.3491955484221e-05
  34    -2.5420891239223e-09
  35    2.3240121952711e-05
  36    0.0002063295412876
  37    0.00070834039659728
  38    0.00060198864358085
  39    1.6820018443608e-05
  40    -1.3819626943462e-05
  41    -1.5590643751881e-05
  42    2.7831884698293e-07
  43    -0.00011646371433854
  44    -0.00013136526033033
  45    -9.8761447370431e-05
  46    -0.00014640478818838
  47    -0.000165163506893
  48    4.4678059239611e-05
  49     2.11906676166e-05
  50    1.0822589874097e-05
  51    -7.4754590107133e-05
  52    1.8761011428073e-05
  53    -2.4880550728414e-10
  54    -2.2028696877686e-09
  55    -8.2805621807068e-09
  56    -6.2157114202494e-09
  57    -1.6485522468078e-05
  58    7.2039058527976e-11
  59    -4.4553091249993e-10