[Molden Format]
made by pyscf v[2.4.0]
[Atoms] (AU)
Fe   1   26     9.86437037022962     1.98421243079332   -15.02332269029224
S   2   16     7.29434284082114    -0.52912331487822   -17.12091868855946
S   3   16     9.44863062282531     1.79523981833681   -10.69584986503825
S   4   16     9.01399361417534     6.00932907611690   -16.51620632869864
S   5   16    13.66271988060540     0.52912331487822   -15.83590492385522
Fe   6   26    11.11158961244256    -1.98421243079332   -17.93350092212244
S   7   16    11.52732935984688    -1.79523981833681   -22.27987100862208
S   8   16    11.96196636849684    -6.00932907611690   -16.45951454496169
C   9   6    11.33835674739037     8.20141138061237   -15.43906243769655
H   10   1    12.20763076469030     9.08958265915795   -17.02643238233121
H   11   1    10.45018546884479     9.59980871279051   -14.26743224046622
H   12   1    12.73675407956852     7.21875379583854   -14.36191854669447
C   13   6     6.29278799480166     2.47554122318023    -9.78878132524702
H   14   1     5.12115779757132     0.86927401729993   -10.14782928891438
H   15   1     6.23609621106470     2.91017823183020    -7.80456889445371
H   16   1     5.61248658995823     4.06291116781488   -10.82813069375780
C   17   6     9.63760323528181    -8.20141138061237   -17.53665843596377
H   18   1    10.50687725258174    -9.54311692905356   -18.76498041693106
H   19   1     8.82502100171884    -9.14627444289490   -15.94928849132912
H   20   1     8.20141138061237    -7.19985653459289   -18.53821328198326
C   21   6    14.68317198787053    -2.47554122318023   -23.18693954841331
H   22   1    14.81545281659008    -2.55113026816283   -25.20894650169792
H   23   1    15.91149396883782    -1.02045210726513   -22.48774088232424
H   24   1    15.23119256399440    -4.25188378027139   -22.41215183734163
[GTO]
1 0
 s    6 1.00
       489363.91999756   0.003350001379677
        76936.88249538   0.010014735201831
        19111.87896905   0.029489541326053
         5953.14711781   0.083206542360293
         2026.23124631    0.25505082434793
          720.41679911    0.71419663548118
 s    2 1.00
          109.11058782    0.74093523374345
           46.72162464    0.28463634357546
 s    2 1.00
            2.44747866    0.38985772703801
             1.1660482    0.63355089030013
 s    1 1.00
          270.92857792                   1
 s    1 1.00
           17.32120133                   1
 s    1 1.00
            7.50518249                   1
 s    1 1.00
            0.53243004                   1
 s    1 1.00
            0.11921823                   1
 s    1 1.00
            0.04225089                   1
 p    5 1.00
         4524.59978956  0.0028146526066035
         1117.10671951   0.015786411749766
          383.18041997   0.070309713574534
          150.91292643    0.25732484525004
           63.20731062    0.74016694058612
 p    2 1.00
           27.51598778    0.50655350945781
           12.38754653    0.54061897628066
 p    3 1.00
            2.50956697    0.52194043612711
            1.07890467    0.50540565320498
            0.43388971   0.037298440805319
 p    1 1.00
            5.64019838                   1
 p    1 1.00
              0.819521                   1
 p    1 1.00
            0.42475725                   1
 d    4 1.00
           57.37689087   0.021868805390254
            16.5000892    0.12813186610507
            5.79890555     0.3863088025741
            2.17706897    0.63484874555344
 d    1 1.00
            0.79292368                   1
 d    1 1.00
            0.26063792                   1
 f    1 1.00
            3.44034529                   1
 f    1 1.00
            0.84589748                   1
 g    1 1.00
            2.25265017                   1

2 0
 s    5 1.00
       131334.98114592   0.004900029954672
        20181.90041917   0.018510718616524
         4835.70463137   0.066508300963639
          1439.7381539    0.23442745803641
          476.15426264    0.75920319935527
 s    2 1.00
            3.37495581    -0.6585952448555
            1.51749916   -0.36774281304806
 s    1 1.00
          168.68252004                   1
 s    1 1.00
           62.92253974                   1
 s    1 1.00
           24.33329987                   1
 s    1 1.00
            6.86573753                   1
 s    1 1.00
            0.44651463                   1
 s    1 1.00
            0.16174242                   1
 p    6 1.00
           754.1523594  0.0018880392695063
          193.63344693   0.012415787013658
           64.14106193   0.058846979762122
           23.75714449    0.19568881772651
            9.45234322    0.40880788238935
            3.93996824    0.48080058752795
 p    1 1.00
            1.72080555                   1
 p    1 1.00
            0.77076298                   1
 p    1 1.00
            0.28737379                   1
 p    1 1.00
             0.1011323                   1
 d    1 1.00
              0.264839                   1
 d    1 1.00
              0.781337                   1
 f    1 1.00
               0.58379                   1

3 0
 s    5 1.00
       131334.98114592   0.004900029954672
        20181.90041917   0.018510718616524
         4835.70463137   0.066508300963639
          1439.7381539    0.23442745803641
          476.15426264    0.75920319935527
 s    2 1.00
            3.37495581    -0.6585952448555
            1.51749916   -0.36774281304806
 s    1 1.00
          168.68252004                   1
 s    1 1.00
           62.92253974                   1
 s    1 1.00
           24.33329987                   1
 s    1 1.00
            6.86573753                   1
 s    1 1.00
            0.44651463                   1
 s    1 1.00
            0.16174242                   1
 p    6 1.00
           754.1523594  0.0018880392695063
          193.63344693   0.012415787013658
           64.14106193   0.058846979762122
           23.75714449    0.19568881772651
            9.45234322    0.40880788238935
            3.93996824    0.48080058752795
 p    1 1.00
            1.72080555                   1
 p    1 1.00
            0.77076298                   1
 p    1 1.00
            0.28737379                   1
 p    1 1.00
             0.1011323                   1
 d    1 1.00
              0.264839                   1
 d    1 1.00
              0.781337                   1
 f    1 1.00
               0.58379                   1

4 0
 s    5 1.00
       131334.98114592   0.004900029954672
        20181.90041917   0.018510718616524
         4835.70463137   0.066508300963639
          1439.7381539    0.23442745803641
          476.15426264    0.75920319935527
 s    2 1.00
            3.37495581    -0.6585952448555
            1.51749916   -0.36774281304806
 s    1 1.00
          168.68252004                   1
 s    1 1.00
           62.92253974                   1
 s    1 1.00
           24.33329987                   1
 s    1 1.00
            6.86573753                   1
 s    1 1.00
            0.44651463                   1
 s    1 1.00
            0.16174242                   1
 p    6 1.00
           754.1523594  0.0018880392695063
          193.63344693   0.012415787013658
           64.14106193   0.058846979762122
           23.75714449    0.19568881772651
            9.45234322    0.40880788238935
            3.93996824    0.48080058752795
 p    1 1.00
            1.72080555                   1
 p    1 1.00
            0.77076298                   1
 p    1 1.00
            0.28737379                   1
 p    1 1.00
             0.1011323                   1
 d    1 1.00
              0.264839                   1
 d    1 1.00
              0.781337                   1
 f    1 1.00
               0.58379                   1

5 0
 s    5 1.00
       131334.98114592   0.004900029954672
        20181.90041917   0.018510718616524
         4835.70463137   0.066508300963639
          1439.7381539    0.23442745803641
          476.15426264    0.75920319935527
 s    2 1.00
            3.37495581    -0.6585952448555
            1.51749916   -0.36774281304806
 s    1 1.00
          168.68252004                   1
 s    1 1.00
           62.92253974                   1
 s    1 1.00
           24.33329987                   1
 s    1 1.00
            6.86573753                   1
 s    1 1.00
            0.44651463                   1
 s    1 1.00
            0.16174242                   1
 p    6 1.00
           754.1523594  0.0018880392695063
          193.63344693   0.012415787013658
           64.14106193   0.058846979762122
           23.75714449    0.19568881772651
            9.45234322    0.40880788238935
            3.93996824    0.48080058752795
 p    1 1.00
            1.72080555                   1
 p    1 1.00
            0.77076298                   1
 p    1 1.00
            0.28737379                   1
 p    1 1.00
             0.1011323                   1
 d    1 1.00
              0.264839                   1
 d    1 1.00
              0.781337                   1
 f    1 1.00
               0.58379                   1

6 0
 s    6 1.00
       489363.91999756   0.003350001379677
        76936.88249538   0.010014735201831
        19111.87896905   0.029489541326053
         5953.14711781   0.083206542360293
         2026.23124631    0.25505082434793
          720.41679911    0.71419663548118
 s    2 1.00
          109.11058782    0.74093523374345
           46.72162464    0.28463634357546
 s    2 1.00
            2.44747866    0.38985772703801
             1.1660482    0.63355089030013
 s    1 1.00
          270.92857792                   1
 s    1 1.00
           17.32120133                   1
 s    1 1.00
            7.50518249                   1
 s    1 1.00
            0.53243004                   1
 s    1 1.00
            0.11921823                   1
 s    1 1.00
            0.04225089                   1
 p    5 1.00
         4524.59978956  0.0028146526066035
         1117.10671951   0.015786411749766
          383.18041997   0.070309713574534
          150.91292643    0.25732484525004
           63.20731062    0.74016694058612
 p    2 1.00
           27.51598778    0.50655350945781
           12.38754653    0.54061897628066
 p    3 1.00
            2.50956697    0.52194043612711
            1.07890467    0.50540565320498
            0.43388971   0.037298440805319
 p    1 1.00
            5.64019838                   1
 p    1 1.00
              0.819521                   1
 p    1 1.00
            0.42475725                   1
 d    4 1.00
           57.37689087   0.021868805390254
            16.5000892    0.12813186610507
            5.79890555     0.3863088025741
            2.17706897    0.63484874555344
 d    1 1.00
            0.79292368                   1
 d    1 1.00
            0.26063792                   1
 f    1 1.00
            3.44034529                   1
 f    1 1.00
            0.84589748                   1
 g    1 1.00
            2.25265017                   1

7 0
 s    5 1.00
       131334.98114592   0.004900029954672
        20181.90041917   0.018510718616524
         4835.70463137   0.066508300963639
          1439.7381539    0.23442745803641
          476.15426264    0.75920319935527
 s    2 1.00
            3.37495581    -0.6585952448555
            1.51749916   -0.36774281304806
 s    1 1.00
          168.68252004                   1
 s    1 1.00
           62.92253974                   1
 s    1 1.00
           24.33329987                   1
 s    1 1.00
            6.86573753                   1
 s    1 1.00
            0.44651463                   1
 s    1 1.00
            0.16174242                   1
 p    6 1.00
           754.1523594  0.0018880392695063
          193.63344693   0.012415787013658
           64.14106193   0.058846979762122
           23.75714449    0.19568881772651
            9.45234322    0.40880788238935
            3.93996824    0.48080058752795
 p    1 1.00
            1.72080555                   1
 p    1 1.00
            0.77076298                   1
 p    1 1.00
            0.28737379                   1
 p    1 1.00
             0.1011323                   1
 d    1 1.00
              0.264839                   1
 d    1 1.00
              0.781337                   1
 f    1 1.00
               0.58379                   1

8 0
 s    5 1.00
       131334.98114592   0.004900029954672
        20181.90041917   0.018510718616524
         4835.70463137   0.066508300963639
          1439.7381539    0.23442745803641
          476.15426264    0.75920319935527
 s    2 1.00
            3.37495581    -0.6585952448555
            1.51749916   -0.36774281304806
 s    1 1.00
          168.68252004                   1
 s    1 1.00
           62.92253974                   1
 s    1 1.00
           24.33329987                   1
 s    1 1.00
            6.86573753                   1
 s    1 1.00
            0.44651463                   1
 s    1 1.00
            0.16174242                   1
 p    6 1.00
           754.1523594  0.0018880392695063
          193.63344693   0.012415787013658
           64.14106193   0.058846979762122
           23.75714449    0.19568881772651
            9.45234322    0.40880788238935
            3.93996824    0.48080058752795
 p    1 1.00
            1.72080555                   1
 p    1 1.00
            0.77076298                   1
 p    1 1.00
            0.28737379                   1
 p    1 1.00
             0.1011323                   1
 d    1 1.00
              0.264839                   1
 d    1 1.00
              0.781337                   1
 f    1 1.00
               0.58379                   1

9 0
 s    5 1.00
          7615.0599911  0.0022244960654013
         1145.08684615   0.014140944039399
          261.91952431     0.0697499873722
           74.66834196     0.2637788237864
           24.40551202    0.73342883264723
 s    2 1.00
            8.68679013    0.58931282466157
            3.23657623    0.45281759130673
 s    1 1.00
            1.30179999                   1
 s    1 1.00
            0.52768873                   1
 s    1 1.00
            0.15694534                   1
 p    4 1.00
           34.50767936    0.01182072267457
            7.91304441    0.07777295570278
            2.36615458    0.31452402468813
            0.81172425    0.71532158178263
 p    1 1.00
            0.31228882                   1
 p    1 1.00
            0.11400266                   1
 d    1 1.00
              1.154049                   1
 d    1 1.00
             0.3511286                   1
 f    1 1.00
              0.819312                   1

10 0
 s    3 1.00
           34.87758369   0.024909420015424
            5.23397281    0.18219013687198
            1.18503342     0.8591140347034
 s    1 1.00
            0.32833943                   1
 s    1 1.00
            0.11031918                   1
 p    1 1.00
              0.718844                   1
 p    1 1.00
                  0.35                   1
 d    1 1.00
               1.07506                   1

11 0
 s    3 1.00
           34.87758369   0.024909420015424
            5.23397281    0.18219013687198
            1.18503342     0.8591140347034
 s    1 1.00
            0.32833943                   1
 s    1 1.00
            0.11031918                   1
 p    1 1.00
              0.718844                   1
 p    1 1.00
                  0.35                   1
 d    1 1.00
               1.07506                   1

12 0
 s    3 1.00
           34.87758369   0.024909420015424
            5.23397281    0.18219013687198
            1.18503342     0.8591140347034
 s    1 1.00
            0.32833943                   1
 s    1 1.00
            0.11031918                   1
 p    1 1.00
              0.718844                   1
 p    1 1.00
                  0.35                   1
 d    1 1.00
               1.07506                   1

13 0
 s    5 1.00
          7615.0599911  0.0022244960654013
         1145.08684615   0.014140944039399
          261.91952431     0.0697499873722
           74.66834196     0.2637788237864
           24.40551202    0.73342883264723
 s    2 1.00
            8.68679013    0.58931282466157
            3.23657623    0.45281759130673
 s    1 1.00
            1.30179999                   1
 s    1 1.00
            0.52768873                   1
 s    1 1.00
            0.15694534                   1
 p    4 1.00
           34.50767936    0.01182072267457
            7.91304441    0.07777295570278
            2.36615458    0.31452402468813
            0.81172425    0.71532158178263
 p    1 1.00
            0.31228882                   1
 p    1 1.00
            0.11400266                   1
 d    1 1.00
              1.154049                   1
 d    1 1.00
             0.3511286                   1
 f    1 1.00
              0.819312                   1

14 0
 s    3 1.00
           34.87758369   0.024909420015424
            5.23397281    0.18219013687198
            1.18503342     0.8591140347034
 s    1 1.00
            0.32833943                   1
 s    1 1.00
            0.11031918                   1
 p    1 1.00
              0.718844                   1
 p    1 1.00
                  0.35                   1
 d    1 1.00
               1.07506                   1

15 0
 s    3 1.00
           34.87758369   0.024909420015424
            5.23397281    0.18219013687198
            1.18503342     0.8591140347034
 s    1 1.00
            0.32833943                   1
 s    1 1.00
            0.11031918                   1
 p    1 1.00
              0.718844                   1
 p    1 1.00
                  0.35                   1
 d    1 1.00
               1.07506                   1

16 0
 s    3 1.00
           34.87758369   0.024909420015424
            5.23397281    0.18219013687198
            1.18503342     0.8591140347034
 s    1 1.00
            0.32833943                   1
 s    1 1.00
            0.11031918                   1
 p    1 1.00
              0.718844                   1
 p    1 1.00
                  0.35                   1
 d    1 1.00
               1.07506                   1

17 0
 s    5 1.00
          7615.0599911  0.0022244960654013
         1145.08684615   0.014140944039399
          261.91952431     0.0697499873722
           74.66834196     0.2637788237864
           24.40551202    0.73342883264723
 s    2 1.00
            8.68679013    0.58931282466157
            3.23657623    0.45281759130673
 s    1 1.00
            1.30179999                   1
 s    1 1.00
            0.52768873                   1
 s    1 1.00
            0.15694534                   1
 p    4 1.00
           34.50767936    0.01182072267457
            7.91304441    0.07777295570278
            2.36615458    0.31452402468813
            0.81172425    0.71532158178263
 p    1 1.00
            0.31228882                   1
 p    1 1.00
            0.11400266                   1
 d    1 1.00
              1.154049                   1
 d    1 1.00
             0.3511286                   1
 f    1 1.00
              0.819312                   1

18 0
 s    3 1.00
           34.87758369   0.024909420015424
            5.23397281    0.18219013687198
            1.18503342     0.8591140347034
 s    1 1.00
            0.32833943                   1
 s    1 1.00
            0.11031918                   1
 p    1 1.00
              0.718844                   1
 p    1 1.00
                  0.35                   1
 d    1 1.00
               1.07506                   1

19 0
 s    3 1.00
           34.87758369   0.024909420015424
            5.23397281    0.18219013687198
            1.18503342     0.8591140347034
 s    1 1.00
            0.32833943                   1
 s    1 1.00
            0.11031918                   1
 p    1 1.00
              0.718844                   1
 p    1 1.00
                  0.35                   1
 d    1 1.00
               1.07506                   1

20 0
 s    3 1.00
           34.87758369   0.024909420015424
            5.23397281    0.18219013687198
            1.18503342     0.8591140347034
 s    1 1.00
            0.32833943                   1
 s    1 1.00
            0.11031918                   1
 p    1 1.00
              0.718844                   1
 p    1 1.00
                  0.35                   1
 d    1 1.00
               1.07506                   1

21 0
 s    5 1.00
          7615.0599911  0.0022244960654013
         1145.08684615   0.014140944039399
          261.91952431     0.0697499873722
           74.66834196     0.2637788237864
           24.40551202    0.73342883264723
 s    2 1.00
            8.68679013    0.58931282466157
            3.23657623    0.45281759130673
 s    1 1.00
            1.30179999                   1
 s    1 1.00
            0.52768873                   1
 s    1 1.00
            0.15694534                   1
 p    4 1.00
           34.50767936    0.01182072267457
            7.91304441    0.07777295570278
            2.36615458    0.31452402468813
            0.81172425    0.71532158178263
 p    1 1.00
            0.31228882                   1
 p    1 1.00
            0.11400266                   1
 d    1 1.00
              1.154049                   1
 d    1 1.00
             0.3511286                   1
 f    1 1.00
              0.819312                   1

22 0
 s    3 1.00
           34.87758369   0.024909420015424
            5.23397281    0.18219013687198
            1.18503342     0.8591140347034
 s    1 1.00
            0.32833943                   1
 s    1 1.00
            0.11031918                   1
 p    1 1.00
              0.718844                   1
 p    1 1.00
                  0.35                   1
 d    1 1.00
               1.07506                   1

23 0
 s    3 1.00
           34.87758369   0.024909420015424
            5.23397281    0.18219013687198
            1.18503342     0.8591140347034
 s    1 1.00
            0.32833943                   1
 s    1 1.00
            0.11031918                   1
 p    1 1.00
              0.718844                   1
 p    1 1.00
                  0.35                   1
 d    1 1.00
               1.07506                   1

24 0
 s    3 1.00
           34.87758369   0.024909420015424
            5.23397281    0.18219013687198
            1.18503342     0.8591140347034
 s    1 1.00
            0.32833943                   1
 s    1 1.00
            0.11031918                   1
 p    1 1.00
              0.718844                   1
 p    1 1.00
                  0.35                   1
 d    1 1.00
               1.07506                   1

[5d]
[7f]
[9g]

[MO]
 Sym= A
 Ene=               0
 Spin= Alpha
 Occup=    1.00000
   1    -0.00024965830602789
   2    -0.0010250746452894
   3    -0.014807361236542
   4    -0.00048495001169322
   5    0.0027407098069733
   6    0.0050620238661169
   7    0.0011007669439226
   8    -0.00021306714870468
   9     -0.00550337065729
  10    -6.0831942013188e-05
  11    -0.0030593693009823
  12    -0.0023481860912058
  13    -0.00022592610165918
  14    -0.0094728859864016
  15    -0.0072628881019172
  16    0.00021398340081493
  17     0.030134949273189
  18     0.023312293652974
  19    0.00026844537241961
  20    0.0039532671654426
  21    0.0029988575731779
  22    0.0026821502973503
  23    0.0096932545849518
  24    0.0069146072165316
  25    -0.005309959563885
  26    -0.020220725476066
  27    -0.014799987693997
  28     0.028085326084522
  29    -0.050443407354747
  30     0.039396289457688
  31    -0.070992035510499
  32    -0.051452760778615
  33     0.016323658797361
  34    -0.030931177433264
  35     0.024808500657948
  36    -0.042563327505226
  37    -0.031801724669083
  38     0.016114627049523
  39     -0.03043272131983
  40     0.017902078664908
  41    -0.038442229738834
  42     -0.03245780522658
  43    8.0372943336622e-05
  44    5.3412394210046e-05
  45    3.0777704355213e-05
  46    -7.3925698474779e-05
  47    7.4702570414752e-05
  48    -0.00014352188366814
  49    -0.00011871400340323
  50    0.0015388136078555
  51    0.0010145778719204
  52    0.00012150135620829
  53    -0.00023799001093762
  54    0.0029913657006229
  55    -0.003052364060403
  56    -0.0011221400817255
  57    -5.1749268826687e-05
  58    0.00010202195801905
  59    -5.8394023892616e-05
  60    6.8983222572255e-05
  61    -1.1359140318067e-05
  62    3.8508093005232e-05
  63    0.0001053083733253
  64    -0.00018108055482013
  65    -2.7930211152602e-05
  66    1.6043497009066e-05
  67    -0.00023396525573547
  68    4.3931955485645e-05
  69    5.6780080260705e-05
  70    0.00015191993213036
  71    -0.00043823909117701
  72    -0.0050433571698495
  73    0.0025593834878958
  74    0.0040901734138819
  75    -0.0052996635947938
  76    -0.0036351039266216
  77    0.00099543519484727
  78    7.1333197959701e-05
  79    0.00015705727246166
  80    -0.0066852836937242
  81    0.0036386779345751
  82    0.0021506245043171
  83    -0.0086983175741021
  84     0.017201157057953
  85     0.012317984764352
  86    -0.018863474497507
  87     0.020861549918106
  88     0.014376508049849
  89    -0.00072266723896884
  90    0.0069786534562639
  91     0.001979332696982
  92    0.0011960749196599
  93    0.0089255323342712
  94    -0.00085793786796752
  95    0.00012872255691205
  96    -0.0013263669232275
  97    0.0021978836674877
  98    8.4745220127853e-05
  99    -0.00056790293427483
 100    -1.2403299632185e-05
 101    -0.00038902767451749
 102    0.0010359884371263
 103    4.6586422713659e-05
 104    0.00019274267872537
 105    0.0014566225306288
 106    8.0010097857469e-05
 107    0.0040371692806282
 108    0.00017876203530746
 109    0.00042113937397525
 110    0.00039783870027051
 111    -0.00075140192761939
 112    0.0075554191867211
 113    0.0093373438151354
 114    0.00015338999028577
 115     0.001218978746805
 116    -0.0038598868020505
 117    5.640699103062e-05
 118    0.00017543958770367
 119    -0.00034785633623426
 120    2.3902342177008e-05
 121    -0.0013881833267533
 122     0.003758489559131
 123    0.0020274379590531
 124    -0.0018474128035513
 125    0.0084130121564138
 126    -0.011152849078979
 127    -0.0062913944948783
 128     0.015586566376638
 129    -0.00072096140250942
 130    0.0046539210565014
 131     0.002468600801606
 132    -0.0041096196508597
 133    0.00070214475132921
 134    0.0015178103257924
 135    0.0022150181953992
 136    -0.00074286899037577
 137    -0.0020201627138856
 138    4.5437319681613e-05
 139    -0.00011450018394462
 140    -0.00052887851972593
 141    -0.00023800955436318
 142    0.00042992761875747
 143    0.00014269070867146
 144    9.7267555355592e-05
 145    -0.00028147463868669
 146    -2.1212927540809e-05
 147    -0.00058954433241091
 148    -5.0653764526581e-05
 149    -9.9237543722179e-05
 150    -0.00013419552294104
 151    0.00031551605753053
 152    0.0010377745260128
 153    -0.0016605368535138
 154    -0.0013484620749899
 155    -0.0016329218324043
 156    0.0031258310996357
 157    -0.00031576319361777
 158    -9.7894574765353e-05
 159    0.00018239196580253
 160    0.0021050267928426
 161     0.001130678991122
 162    -0.0029477494396582
 163    0.0031233515988767
 164    0.0056943952051974
 165    -0.0074106964148287
 166    0.0020305919840413
 167    0.0078629038199121
 168    -0.012790438575109
 169    -0.00039401863384021
 170    -0.0018847002959168
 171    0.0033284342317628
 172    -0.0009177140174285
 173    0.0039668437465867
 174    0.00043009533508707
 175    0.00042017284842212
 176    -0.00030598426576741
 177    -6.4331771227017e-05
 178    0.00099622762890189
 179    0.00025119182105664
 180    -0.00010280051375328
 181    -2.5120535860166e-05
 182    0.0001629669424849
 183    0.00041705211566114
 184    -0.00041192026565943
 185    0.00064239710593152
 186     0.002399752045918
 187      0.10546422700519
 188    0.0053609509504321
 189     0.012486967421104
 190     0.011849787704932
 191    -0.022157101595769
 192      0.11173532326247
 193       0.1251009136675
 194     0.088074642597662
 195      0.12870744539868
 196      0.10639742381645
 197     0.010328808031762
 198     0.015679654345998
 199     0.012870004808807
 200    -0.090953050743206
 201     -0.13766651086538
 202     -0.11336580377981
 203     -0.19268079714557
 204     -0.27804487626993
 205     -0.23077454416618
 206     -0.12212621670677
 207     -0.18389127271069
 208     -0.14933031795294
 209    -0.0087926579113072
 210      0.02881520504464
 211     0.016515461709761
 212     0.012634723782644
 213     0.032830457548751
 214     -0.00261172316021
 215     0.011265225702699
 216    0.0070098218065867
 217    0.0027408243186377
 218     0.013010624557708
 219    0.0067223176216354
 220    0.0011419559835131
 221    -0.0014487152524608
 222    -0.00023379745710592
 223    -0.0063700139032546
 224    -0.00034278058333813
 225    -0.0046578366977196
 226    -0.0027251663786772
 227    -0.011225666304908
 228     -0.16411336259968
 229    -0.0052775745160425
 230     0.030253562575531
 231     0.054616101829322
 232    -0.025126337962596
 233      0.17194240534485
 234    -0.023466014712046
 235    0.0059381521975965
 236    0.0058073796031089
 237    0.0046982763464325
 238     0.018280578394343
 239      0.01792359724337
 240     0.014488759389025
 241      -0.0620316211479
 242    -0.059477099135224
 243    -0.048394559403014
 244    -0.0072401591223884
 245    -0.0072795336271341
 246    -0.0058363237717442
 247    -0.012212194842652
 248     -0.01415132056248
 249    -0.010733394774011
 250     0.033214159519995
 251     0.034132473575242
 252     0.026772597881533
 253    -0.022580918139002
 254      0.12709019747905
 255      0.12106989606134
 256    -0.010158653413605
 257      0.15955406161111
 258    -0.014331889075589
 259     0.080486486228466
 260     0.076024827815639
 261    -0.0057732680950624
 262      0.10132042602974
 263    -0.0093608850814985