[Molden Format]
made by pyscf v[2.4.0]
[Atoms] (AU)
Fe   1   26     9.86437037022962     1.98421243079332   -15.02332269029224
S   2   16     7.29434284082114    -0.52912331487822   -17.12091868855946
S   3   16     9.44863062282531     1.79523981833681   -10.69584986503825
S   4   16     9.01399361417534     6.00932907611690   -16.51620632869864
S   5   16    13.66271988060540     0.52912331487822   -15.83590492385522
Fe   6   26    11.11158961244256    -1.98421243079332   -17.93350092212244
S   7   16    11.52732935984688    -1.79523981833681   -22.27987100862208
S   8   16    11.96196636849684    -6.00932907611690   -16.45951454496169
C   9   6    11.33835674739037     8.20141138061237   -15.43906243769655
H   10   1    12.20763076469030     9.08958265915795   -17.02643238233121
H   11   1    10.45018546884479     9.59980871279051   -14.26743224046622
H   12   1    12.73675407956852     7.21875379583854   -14.36191854669447
C   13   6     6.29278799480166     2.47554122318023    -9.78878132524702
H   14   1     5.12115779757132     0.86927401729993   -10.14782928891438
H   15   1     6.23609621106470     2.91017823183020    -7.80456889445371
H   16   1     5.61248658995823     4.06291116781488   -10.82813069375780
C   17   6     9.63760323528181    -8.20141138061237   -17.53665843596377
H   18   1    10.50687725258174    -9.54311692905356   -18.76498041693106
H   19   1     8.82502100171884    -9.14627444289490   -15.94928849132912
H   20   1     8.20141138061237    -7.19985653459289   -18.53821328198326
C   21   6    14.68317198787053    -2.47554122318023   -23.18693954841331
H   22   1    14.81545281659008    -2.55113026816283   -25.20894650169792
H   23   1    15.91149396883782    -1.02045210726513   -22.48774088232424
H   24   1    15.23119256399440    -4.25188378027139   -22.41215183734163
[GTO]
1 0
 s    6 1.00
       489363.91999756   0.003350001379677
        76936.88249538   0.010014735201831
        19111.87896905   0.029489541326053
         5953.14711781   0.083206542360293
         2026.23124631    0.25505082434793
          720.41679911    0.71419663548118
 s    2 1.00
          109.11058782    0.74093523374345
           46.72162464    0.28463634357546
 s    2 1.00
            2.44747866    0.38985772703801
             1.1660482    0.63355089030013
 s    1 1.00
          270.92857792                   1
 s    1 1.00
           17.32120133                   1
 s    1 1.00
            7.50518249                   1
 s    1 1.00
            0.53243004                   1
 s    1 1.00
            0.11921823                   1
 s    1 1.00
            0.04225089                   1
 p    5 1.00
         4524.59978956  0.0028146526066035
         1117.10671951   0.015786411749766
          383.18041997   0.070309713574534
          150.91292643    0.25732484525004
           63.20731062    0.74016694058612
 p    2 1.00
           27.51598778    0.50655350945781
           12.38754653    0.54061897628066
 p    3 1.00
            2.50956697    0.52194043612711
            1.07890467    0.50540565320498
            0.43388971   0.037298440805319
 p    1 1.00
            5.64019838                   1
 p    1 1.00
              0.819521                   1
 p    1 1.00
            0.42475725                   1
 d    4 1.00
           57.37689087   0.021868805390254
            16.5000892    0.12813186610507
            5.79890555     0.3863088025741
            2.17706897    0.63484874555344
 d    1 1.00
            0.79292368                   1
 d    1 1.00
            0.26063792                   1
 f    1 1.00
            3.44034529                   1
 f    1 1.00
            0.84589748                   1
 g    1 1.00
            2.25265017                   1

2 0
 s    5 1.00
       131334.98114592   0.004900029954672
        20181.90041917   0.018510718616524
         4835.70463137   0.066508300963639
          1439.7381539    0.23442745803641
          476.15426264    0.75920319935527
 s    2 1.00
            3.37495581    -0.6585952448555
            1.51749916   -0.36774281304806
 s    1 1.00
          168.68252004                   1
 s    1 1.00
           62.92253974                   1
 s    1 1.00
           24.33329987                   1
 s    1 1.00
            6.86573753                   1
 s    1 1.00
            0.44651463                   1
 s    1 1.00
            0.16174242                   1
 p    6 1.00
           754.1523594  0.0018880392695063
          193.63344693   0.012415787013658
           64.14106193   0.058846979762122
           23.75714449    0.19568881772651
            9.45234322    0.40880788238935
            3.93996824    0.48080058752795
 p    1 1.00
            1.72080555                   1
 p    1 1.00
            0.77076298                   1
 p    1 1.00
            0.28737379                   1
 p    1 1.00
             0.1011323                   1
 d    1 1.00
              0.264839                   1
 d    1 1.00
              0.781337                   1
 f    1 1.00
               0.58379                   1

3 0
 s    5 1.00
       131334.98114592   0.004900029954672
        20181.90041917   0.018510718616524
         4835.70463137   0.066508300963639
          1439.7381539    0.23442745803641
          476.15426264    0.75920319935527
 s    2 1.00
            3.37495581    -0.6585952448555
            1.51749916   -0.36774281304806
 s    1 1.00
          168.68252004                   1
 s    1 1.00
           62.92253974                   1
 s    1 1.00
           24.33329987                   1
 s    1 1.00
            6.86573753                   1
 s    1 1.00
            0.44651463                   1
 s    1 1.00
            0.16174242                   1
 p    6 1.00
           754.1523594  0.0018880392695063
          193.63344693   0.012415787013658
           64.14106193   0.058846979762122
           23.75714449    0.19568881772651
            9.45234322    0.40880788238935
            3.93996824    0.48080058752795
 p    1 1.00
            1.72080555                   1
 p    1 1.00
            0.77076298                   1
 p    1 1.00
            0.28737379                   1
 p    1 1.00
             0.1011323                   1
 d    1 1.00
              0.264839                   1
 d    1 1.00
              0.781337                   1
 f    1 1.00
               0.58379                   1

4 0
 s    5 1.00
       131334.98114592   0.004900029954672
        20181.90041917   0.018510718616524
         4835.70463137   0.066508300963639
          1439.7381539    0.23442745803641
          476.15426264    0.75920319935527
 s    2 1.00
            3.37495581    -0.6585952448555
            1.51749916   -0.36774281304806
 s    1 1.00
          168.68252004                   1
 s    1 1.00
           62.92253974                   1
 s    1 1.00
           24.33329987                   1
 s    1 1.00
            6.86573753                   1
 s    1 1.00
            0.44651463                   1
 s    1 1.00
            0.16174242                   1
 p    6 1.00
           754.1523594  0.0018880392695063
          193.63344693   0.012415787013658
           64.14106193   0.058846979762122
           23.75714449    0.19568881772651
            9.45234322    0.40880788238935
            3.93996824    0.48080058752795
 p    1 1.00
            1.72080555                   1
 p    1 1.00
            0.77076298                   1
 p    1 1.00
            0.28737379                   1
 p    1 1.00
             0.1011323                   1
 d    1 1.00
              0.264839                   1
 d    1 1.00
              0.781337                   1
 f    1 1.00
               0.58379                   1

5 0
 s    5 1.00
       131334.98114592   0.004900029954672
        20181.90041917   0.018510718616524
         4835.70463137   0.066508300963639
          1439.7381539    0.23442745803641
          476.15426264    0.75920319935527
 s    2 1.00
            3.37495581    -0.6585952448555
            1.51749916   -0.36774281304806
 s    1 1.00
          168.68252004                   1
 s    1 1.00
           62.92253974                   1
 s    1 1.00
           24.33329987                   1
 s    1 1.00
            6.86573753                   1
 s    1 1.00
            0.44651463                   1
 s    1 1.00
            0.16174242                   1
 p    6 1.00
           754.1523594  0.0018880392695063
          193.63344693   0.012415787013658
           64.14106193   0.058846979762122
           23.75714449    0.19568881772651
            9.45234322    0.40880788238935
            3.93996824    0.48080058752795
 p    1 1.00
            1.72080555                   1
 p    1 1.00
            0.77076298                   1
 p    1 1.00
            0.28737379                   1
 p    1 1.00
             0.1011323                   1
 d    1 1.00
              0.264839                   1
 d    1 1.00
              0.781337                   1
 f    1 1.00
               0.58379                   1

6 0
 s    6 1.00
       489363.91999756   0.003350001379677
        76936.88249538   0.010014735201831
        19111.87896905   0.029489541326053
         5953.14711781   0.083206542360293
         2026.23124631    0.25505082434793
          720.41679911    0.71419663548118
 s    2 1.00
          109.11058782    0.74093523374345
           46.72162464    0.28463634357546
 s    2 1.00
            2.44747866    0.38985772703801
             1.1660482    0.63355089030013
 s    1 1.00
          270.92857792                   1
 s    1 1.00
           17.32120133                   1
 s    1 1.00
            7.50518249                   1
 s    1 1.00
            0.53243004                   1
 s    1 1.00
            0.11921823                   1
 s    1 1.00
            0.04225089                   1
 p    5 1.00
         4524.59978956  0.0028146526066035
         1117.10671951   0.015786411749766
          383.18041997   0.070309713574534
          150.91292643    0.25732484525004
           63.20731062    0.74016694058612
 p    2 1.00
           27.51598778    0.50655350945781
           12.38754653    0.54061897628066
 p    3 1.00
            2.50956697    0.52194043612711
            1.07890467    0.50540565320498
            0.43388971   0.037298440805319
 p    1 1.00
            5.64019838                   1
 p    1 1.00
              0.819521                   1
 p    1 1.00
            0.42475725                   1
 d    4 1.00
           57.37689087   0.021868805390254
            16.5000892    0.12813186610507
            5.79890555     0.3863088025741
            2.17706897    0.63484874555344
 d    1 1.00
            0.79292368                   1
 d    1 1.00
            0.26063792                   1
 f    1 1.00
            3.44034529                   1
 f    1 1.00
            0.84589748                   1
 g    1 1.00
            2.25265017                   1

7 0
 s    5 1.00
       131334.98114592   0.004900029954672
        20181.90041917   0.018510718616524
         4835.70463137   0.066508300963639
          1439.7381539    0.23442745803641
          476.15426264    0.75920319935527
 s    2 1.00
            3.37495581    -0.6585952448555
            1.51749916   -0.36774281304806
 s    1 1.00
          168.68252004                   1
 s    1 1.00
           62.92253974                   1
 s    1 1.00
           24.33329987                   1
 s    1 1.00
            6.86573753                   1
 s    1 1.00
            0.44651463                   1
 s    1 1.00
            0.16174242                   1
 p    6 1.00
           754.1523594  0.0018880392695063
          193.63344693   0.012415787013658
           64.14106193   0.058846979762122
           23.75714449    0.19568881772651
            9.45234322    0.40880788238935
            3.93996824    0.48080058752795
 p    1 1.00
            1.72080555                   1
 p    1 1.00
            0.77076298                   1
 p    1 1.00
            0.28737379                   1
 p    1 1.00
             0.1011323                   1
 d    1 1.00
              0.264839                   1
 d    1 1.00
              0.781337                   1
 f    1 1.00
               0.58379                   1

8 0
 s    5 1.00
       131334.98114592   0.004900029954672
        20181.90041917   0.018510718616524
         4835.70463137   0.066508300963639
          1439.7381539    0.23442745803641
          476.15426264    0.75920319935527
 s    2 1.00
            3.37495581    -0.6585952448555
            1.51749916   -0.36774281304806
 s    1 1.00
          168.68252004                   1
 s    1 1.00
           62.92253974                   1
 s    1 1.00
           24.33329987                   1
 s    1 1.00
            6.86573753                   1
 s    1 1.00
            0.44651463                   1
 s    1 1.00
            0.16174242                   1
 p    6 1.00
           754.1523594  0.0018880392695063
          193.63344693   0.012415787013658
           64.14106193   0.058846979762122
           23.75714449    0.19568881772651
            9.45234322    0.40880788238935
            3.93996824    0.48080058752795
 p    1 1.00
            1.72080555                   1
 p    1 1.00
            0.77076298                   1
 p    1 1.00
            0.28737379                   1
 p    1 1.00
             0.1011323                   1
 d    1 1.00
              0.264839                   1
 d    1 1.00
              0.781337                   1
 f    1 1.00
               0.58379                   1

9 0
 s    5 1.00
          7615.0599911  0.0022244960654013
         1145.08684615   0.014140944039399
          261.91952431     0.0697499873722
           74.66834196     0.2637788237864
           24.40551202    0.73342883264723
 s    2 1.00
            8.68679013    0.58931282466157
            3.23657623    0.45281759130673
 s    1 1.00
            1.30179999                   1
 s    1 1.00
            0.52768873                   1
 s    1 1.00
            0.15694534                   1
 p    4 1.00
           34.50767936    0.01182072267457
            7.91304441    0.07777295570278
            2.36615458    0.31452402468813
            0.81172425    0.71532158178263
 p    1 1.00
            0.31228882                   1
 p    1 1.00
            0.11400266                   1
 d    1 1.00
              1.154049                   1
 d    1 1.00
             0.3511286                   1
 f    1 1.00
              0.819312                   1

10 0
 s    3 1.00
           34.87758369   0.024909420015424
            5.23397281    0.18219013687198
            1.18503342     0.8591140347034
 s    1 1.00
            0.32833943                   1
 s    1 1.00
            0.11031918                   1
 p    1 1.00
              0.718844                   1
 p    1 1.00
                  0.35                   1
 d    1 1.00
               1.07506                   1

11 0
 s    3 1.00
           34.87758369   0.024909420015424
            5.23397281    0.18219013687198
            1.18503342     0.8591140347034
 s    1 1.00
            0.32833943                   1
 s    1 1.00
            0.11031918                   1
 p    1 1.00
              0.718844                   1
 p    1 1.00
                  0.35                   1
 d    1 1.00
               1.07506                   1

12 0
 s    3 1.00
           34.87758369   0.024909420015424
            5.23397281    0.18219013687198
            1.18503342     0.8591140347034
 s    1 1.00
            0.32833943                   1
 s    1 1.00
            0.11031918                   1
 p    1 1.00
              0.718844                   1
 p    1 1.00
                  0.35                   1
 d    1 1.00
               1.07506                   1

13 0
 s    5 1.00
          7615.0599911  0.0022244960654013
         1145.08684615   0.014140944039399
          261.91952431     0.0697499873722
           74.66834196     0.2637788237864
           24.40551202    0.73342883264723
 s    2 1.00
            8.68679013    0.58931282466157
            3.23657623    0.45281759130673
 s    1 1.00
            1.30179999                   1
 s    1 1.00
            0.52768873                   1
 s    1 1.00
            0.15694534                   1
 p    4 1.00
           34.50767936    0.01182072267457
            7.91304441    0.07777295570278
            2.36615458    0.31452402468813
            0.81172425    0.71532158178263
 p    1 1.00
            0.31228882                   1
 p    1 1.00
            0.11400266                   1
 d    1 1.00
              1.154049                   1
 d    1 1.00
             0.3511286                   1
 f    1 1.00
              0.819312                   1

14 0
 s    3 1.00
           34.87758369   0.024909420015424
            5.23397281    0.18219013687198
            1.18503342     0.8591140347034
 s    1 1.00
            0.32833943                   1
 s    1 1.00
            0.11031918                   1
 p    1 1.00
              0.718844                   1
 p    1 1.00
                  0.35                   1
 d    1 1.00
               1.07506                   1

15 0
 s    3 1.00
           34.87758369   0.024909420015424
            5.23397281    0.18219013687198
            1.18503342     0.8591140347034
 s    1 1.00
            0.32833943                   1
 s    1 1.00
            0.11031918                   1
 p    1 1.00
              0.718844                   1
 p    1 1.00
                  0.35                   1
 d    1 1.00
               1.07506                   1

16 0
 s    3 1.00
           34.87758369   0.024909420015424
            5.23397281    0.18219013687198
            1.18503342     0.8591140347034
 s    1 1.00
            0.32833943                   1
 s    1 1.00
            0.11031918                   1
 p    1 1.00
              0.718844                   1
 p    1 1.00
                  0.35                   1
 d    1 1.00
               1.07506                   1

17 0
 s    5 1.00
          7615.0599911  0.0022244960654013
         1145.08684615   0.014140944039399
          261.91952431     0.0697499873722
           74.66834196     0.2637788237864
           24.40551202    0.73342883264723
 s    2 1.00
            8.68679013    0.58931282466157
            3.23657623    0.45281759130673
 s    1 1.00
            1.30179999                   1
 s    1 1.00
            0.52768873                   1
 s    1 1.00
            0.15694534                   1
 p    4 1.00
           34.50767936    0.01182072267457
            7.91304441    0.07777295570278
            2.36615458    0.31452402468813
            0.81172425    0.71532158178263
 p    1 1.00
            0.31228882                   1
 p    1 1.00
            0.11400266                   1
 d    1 1.00
              1.154049                   1
 d    1 1.00
             0.3511286                   1
 f    1 1.00
              0.819312                   1

18 0
 s    3 1.00
           34.87758369   0.024909420015424
            5.23397281    0.18219013687198
            1.18503342     0.8591140347034
 s    1 1.00
            0.32833943                   1
 s    1 1.00
            0.11031918                   1
 p    1 1.00
              0.718844                   1
 p    1 1.00
                  0.35                   1
 d    1 1.00
               1.07506                   1

19 0
 s    3 1.00
           34.87758369   0.024909420015424
            5.23397281    0.18219013687198
            1.18503342     0.8591140347034
 s    1 1.00
            0.32833943                   1
 s    1 1.00
            0.11031918                   1
 p    1 1.00
              0.718844                   1
 p    1 1.00
                  0.35                   1
 d    1 1.00
               1.07506                   1

20 0
 s    3 1.00
           34.87758369   0.024909420015424
            5.23397281    0.18219013687198
            1.18503342     0.8591140347034
 s    1 1.00
            0.32833943                   1
 s    1 1.00
            0.11031918                   1
 p    1 1.00
              0.718844                   1
 p    1 1.00
                  0.35                   1
 d    1 1.00
               1.07506                   1

21 0
 s    5 1.00
          7615.0599911  0.0022244960654013
         1145.08684615   0.014140944039399
          261.91952431     0.0697499873722
           74.66834196     0.2637788237864
           24.40551202    0.73342883264723
 s    2 1.00
            8.68679013    0.58931282466157
            3.23657623    0.45281759130673
 s    1 1.00
            1.30179999                   1
 s    1 1.00
            0.52768873                   1
 s    1 1.00
            0.15694534                   1
 p    4 1.00
           34.50767936    0.01182072267457
            7.91304441    0.07777295570278
            2.36615458    0.31452402468813
            0.81172425    0.71532158178263
 p    1 1.00
            0.31228882                   1
 p    1 1.00
            0.11400266                   1
 d    1 1.00
              1.154049                   1
 d    1 1.00
             0.3511286                   1
 f    1 1.00
              0.819312                   1

22 0
 s    3 1.00
           34.87758369   0.024909420015424
            5.23397281    0.18219013687198
            1.18503342     0.8591140347034
 s    1 1.00
            0.32833943                   1
 s    1 1.00
            0.11031918                   1
 p    1 1.00
              0.718844                   1
 p    1 1.00
                  0.35                   1
 d    1 1.00
               1.07506                   1

23 0
 s    3 1.00
           34.87758369   0.024909420015424
            5.23397281    0.18219013687198
            1.18503342     0.8591140347034
 s    1 1.00
            0.32833943                   1
 s    1 1.00
            0.11031918                   1
 p    1 1.00
              0.718844                   1
 p    1 1.00
                  0.35                   1
 d    1 1.00
               1.07506                   1

24 0
 s    3 1.00
           34.87758369   0.024909420015424
            5.23397281    0.18219013687198
            1.18503342     0.8591140347034
 s    1 1.00
            0.32833943                   1
 s    1 1.00
            0.11031918                   1
 p    1 1.00
              0.718844                   1
 p    1 1.00
                  0.35                   1
 d    1 1.00
               1.07506                   1

[5d]
[7f]
[9g]

[MO]
 Sym= A
 Ene=               0
 Spin= Alpha
 Occup=    1.00000
   1    0.0027095517276776
   2     0.011161479372479
   3      0.16315366391854
   4    0.0052472432556794
   5    -0.030082157588984
   6    -0.054299609151077
   7     0.025272644993226
   8     -0.17301317388922
   9     0.022811734089873
  10    0.0059494703791462
  11    0.0057480566445839
  12    0.0046501466211375
  13     0.018319144215329
  14     0.017745960548134
  15     0.014343467960836
  16    -0.062063803271899
  17    -0.058750867530821
  18    -0.047830921067995
  19    -0.0072707499421507
  20    -0.0072296481406119
  21    -0.0057906608825829
  22    -0.012500651897392
  23    -0.014369012241363
  24    -0.010847910116569
  25     0.033716078928298
  26     0.034332765672167
  27     0.026877269409447
  28     0.023750472623311
  29     -0.12741666616832
  30     -0.12015514292059
  31    0.0089626930823367
  32      -0.1603798285748
  33     0.015048364159944
  34    -0.080650631417272
  35    -0.075436841810334
  36    0.0050405151970985
  37     -0.10179231378871
  38    0.0098882437145593
  39    -0.047343520643788
  40    -0.047788191989853
  41    0.0034309874000754
  42    -0.057912534016243
  43    -0.00020607153198499
  44    4.7493653592439e-05
  45    6.5318682117569e-05
  46    -7.3720956775763e-06
  47    0.0003774540409688
  48    -0.00017644423627626
  49    0.00016183144147084
  50    -0.0019364559329372
  51    1.0217253824247e-05
  52    0.00049486921411968
  53    -3.3901758732764e-05
  54    0.0028029632839429
  55    -0.00077127101096174
  56    0.0012792651200979
  57    0.0001242054614625
  58    0.0001546621999304
  59    0.00012904944957179
  60    -8.0205828138178e-06
  61    -8.5851225467692e-05
  62    9.8461646132954e-05
  63    -0.00019638018964665
  64    0.00013955547444182
  65    -9.3520761950108e-05
  66    -0.0023934098427981
  67     -0.10513373123991
  68    -0.0053473514770557
  69    -0.012451941360464
  70    -0.011823603243137
  71     0.022119423932209
  72      -0.1113854956368
  73     -0.12489108131949
  74     0.088088579171922
  75      0.12842749321551
  76      0.10652807650676
  77     0.010309786227315
  78     0.015628823238855
  79     0.012881618378516
  80    -0.090988524886547
  81     -0.13742562526947
  82     -0.11359785131111
  83     -0.19257670500602
  84     -0.27726446200192
  85     -0.23084851827969
  86     -0.12250523492409
  87     -0.18406107164379
  88     -0.15016030789155
  89    0.0087680037096647
  90    -0.028707539764371
  91    -0.016389948269323
  92    -0.012621025349436
  93    -0.032551741457562
  94    0.0025884758527673
  95    -0.011118407244651
  96    -0.0069259184382765
  97    -0.0027191352084678
  98    -0.012824251998695
  99     0.006661917852814
 100    0.0011280148972639
 101    -0.001410144886963
 102    -0.0002938364618904
 103    -0.006327840601976
 104    -0.00033581543174865
 105    -0.0046434432117571
 106    5.1876127219042e-06
 107    0.00017481248211533
 108    1.6792082643154e-05
 109    1.3573979232454e-05
 110    7.4904276661879e-05
 111    -0.0002515711228214
 112    -0.0015529136969964
 113     0.020481639972482
 114    -0.0010008810882957
 115    -0.0051524563648836
 116    0.0026411776413263
 117    9.1173841716686e-05
 118    -0.00045163264077771
 119    0.00057908757609592
 120    0.0005368618620773
 121    0.0051896698753025
 122    -0.0043314905551873
 123    0.0017807204939781
 124     0.011862543358512
 125    -0.0060238778163655
 126    -0.0015248510191464
 127     0.013029354850746
 128    -0.022866261554851
 129    -0.00014076462932245
 130    -0.002857196850234
 131    -0.0031855387049944
 132    0.0014600098829278
 133    -0.003505618496985
 134    -0.0014152832196337
 135    0.00061111988652197
 136    0.00067940732172262
 137    2.765162629116e-05
 138    -0.00064668454821759
 139    -0.00025958235394813
 140    0.00042228640754059
 141    0.00033136860389224
 142    0.00019735354582398
 143    0.0006133273026455
 144    -0.00011688626608206
 145    0.0002920291110116
 146    7.2755792201855e-05
 147    0.0033652781661888
 148    0.00016855931710807
 149    0.00036505216477337
 150    0.00041716472989629
 151    -0.00090897610905791
 152    0.0041150513252396
 153     0.020719509593048
 154    -0.0021434064969488
 155     0.001967200140718
 156    -0.0017937146266937
 157    -2.5373683512021e-05
 158    0.00068736377503894
 159    -1.6454040616332e-05
 160    0.0016385521665992
 161    -0.0040831910276341
 162    0.0014094724245841
 163    0.0061572875611554
 164    -0.0028767197063289
 165    0.0052347040706271
 166    0.0083017070032658
 167    -0.023331582196627
 168     0.010050065005243
 169     0.002985569235707
 170    0.00041210510386666
 171    -0.0044786685729243
 172    0.0022017561522998
 173    -0.0059097005699506
 174    0.0010109577484123
 175    -0.0014177377755604
 176    -9.3813537486135e-05
 177    0.00096445753021534
 178    -0.0013012185632296
 179    -0.00030055951829532
 180    -0.00023559740610317
 181    -0.0003284004613785
 182    -0.00056903383239362
 183    0.00012521269964793
 184    -0.00042366845234012
 185    -5.9350546123781e-05
 186    -1.4529860132641e-05
 187    0.00030654705791814
 188    -4.0588669254928e-05
 189    -4.8772507831603e-05
 190    -0.00014478710703481
 191    0.00042568107002026
 192    0.0050934358307047
 193    -0.0022238846067308
 194    0.0042297643210957
 195    -0.0052382118307933
 196    -0.0036912520865756
 197    0.0010229027099338
 198    8.4675653994834e-05
 199    0.00016019160991911
 200    -0.006848001152849
 201    0.0035516555694492
 202    0.0021840395217207
 203    -0.0090724872108325
 204     0.017178438326674
 205     0.012552346006228
 206    -0.019169674278904
 207     0.020918233880904
 208     0.014528463044085
 209    0.00072721952102631
 210    -0.0070049264119244
 211    -0.0020288355848664
 212    -0.0011365904417416
 213    -0.0089720475767674
 214    0.00082357301877304
 215    -0.00015254179888988
 216    0.0013136854264917
 217    -0.0021433516825881
 218    -0.00012932719671195
 219    -0.00055839524075911
 220    -6.9011189824709e-06
 221    -0.0003898474622275
 222    0.0010481232683224
 223    5.3701377663452e-05
 224    0.00017089882918595
 225    0.0014669005517869
 226    0.00025016957989673
 227    0.0010273870136655
 228     0.014823366897901
 229    0.00048584408571026
 230     -0.00274841160501
 231    -0.0050669073039915
 232    -0.0010228898614247
 233    9.771843680464e-05
 234    0.0060298739018154
 235    -3.6519318846493e-05
 236    -0.0030279969241342
 237    -0.0023277207695945
 238    -0.00014982050909695
 239    -0.0093765528573963
 240    -0.0072008568296532
 241    -1.1033180961906e-05
 242     0.029810608533381
 243     0.023084565801596
 244    0.00023274843095081
 245    0.0039164002978101
 246    0.0029786463829175
 247    0.0025252667236801
 248    0.0096316196122759
 249    0.0069387799095764
 250    -0.0049888725077776
 251     -0.02003782666843
 252    -0.014794106701719
 253    -0.027889912886789
 254     0.050633501385894
 255    -0.039032563391334
 256     0.070008159579603
 257     0.051153819379259
 258    -0.016178837848792
 259     0.031018713923704
 260    -0.024544241802414
 261     0.041923981477969
 262     0.031597875058416
 263    -0.016043687033326