 &FCI NORB=20,NELEC=30,MS2=0,
  ORBSYM=1,1,1,1,1,1,1,1,1,1,1,1,1,1,1,1,1,1,1,1,
  ISYM=1,
 &END
1.8858899805338758 1 1 1 1
-0.0007913978729254144 2 1 1 1
7.149784044944542e-07 2 1 2 1
0.13894690911243626 2 2 1 1
0.0007890845377390534 2 2 2 1
1.8858895332314405 2 2 2 2
-1.964310413504939e-06 3 1 1 1
-3.360630590932287e-06 3 1 2 2
1.5622205636656963e-06 3 1 3 1
-2.568627155264832e-07 3 2 1 1
1.4658357013995173e-06 3 2 2 2
-2.978516121526295e-07 3 2 3 1
7.212948781488788e-08 3 2 3 2
0.08082859204026134 3 3 1 1
7.097895629171682e-06 3 3 2 1
0.09973400670329863 3 3 2 2
1.712176531015572e-06 3 3 3 1
-1.5528083369733153e-06 3 3 3 2
2.2224601076774304 3 3 3 3
1.4689433620208743e-06 4 1 1 1
2.904951373087526e-07 4 1 2 2
-2.4434216499131702e-08 4 1 3 1
-1.9820436994234145e-06 4 1 3 3
1.83108906261875e-07 4 1 4 1
6.091536046174095e-07 4 2 1 1
2.5415493272149e-06 4 2 2 2
2.1981917978735552e-09 4 2 3 2
2.7825280980961998e-06 4 2 3 3
-1.659351486100518e-07 4 2 4 1
1.913318210058275e-07 4 2 4 2
7.761065357611268e-06 4 3 1 1
-6.712071784603604e-09 4 3 2 1
-7.644709599396627e-06 4 3 2 2
-4.101696311975581e-09 4 3 3 1
1.1681417350754033e-09 4 3 3 2
-0.0008658398210222515 4 3 3 3
1.0648879775736422e-09 4 3 4 1
-2.095225814815533e-09 4 3 4 2
7.241642363848415e-07 4 3 4 3
0.09973472743523423 4 4 1 1
-9.182459120723647e-06 4 4 2 1
0.08128478613051936 4 4 2 2
-8.003886702641605e-06 4 4 3 1
1.2370540312518718e-06 4 4 3 2
0.13909063375715197 4 4 3 3
5.633991981929136e-07 4 4 4 1
-2.2094544435573322e-06 4 4 4 2
0.0008659900324898413 4 4 4 3
2.222416260867397 4 4 4 4
-1.5074104525538051e-06 5 1 1 1
3.377587975579298e-07 5 1 2 2
-2.9538254946935226e-07 5 1 3 3
-1.870772943267893e-09 5 1 4 1
-3.865136621938007e-07 5 1 4 4
2.4625228949444483e-09 5 1 5 1
2.544260346778109e-07 5 2 1 1
-8.317453460560359e-07 5 2 2 2
-1.8808838680605985e-07 5 2 3 3
-1.5373346891802563e-07 5 2 4 4
-8.085272519827168e-07 5 3 1 1
-5.399400602418842e-07 5 3 2 2
1.3240337687963756e-09 5 3 3 1
2.7304279291654526e-05 5 3 3 3
-1.1659017152069065e-08 5 3 4 3
-1.4932950592762046e-07 5 3 4 4
-4.3412122235962336e-07 5 4 1 1
-5.017227954500405e-07 5 4 2 2
-5.626220580769506e-08 5 4 3 3
7.51414433331708e-09 5 4 4 3
1.827065837231035e-05 5 4 4 4
0.14744479262709748 5 5 1 1
-3.6130440940241464e-06 5 5 2 1
0.13944078392401169 5 5 2 2
-1.0029335018036636e-05 5 5 3 1
9.208329908547971e-07 5 5 3 2
0.138791818391209 5 5 3 3
-7.309128362091109e-07 5 5 4 1
1.8301836935699906e-06 5 5 4 2
3.8208729047371195e-06 5 5 4 3
0.14782513516863355 5 5 4 4
2.067124046394535e-07 5 5 5 1
2.845749724522024e-07 5 5 5 2
-2.5433162234754644e-05 5 5 5 3
-1.7163179492138934e-05 5 5 5 4
2.221918978398358 5 5 5 5
-1.8313731599164787e-06 6 1 1 1
1.4682812225952548e-07 6 1 2 2
-1.6456606394902875e-07 6 1 3 3
-1.7321845220779869e-09 6 1 4 1
-1.5435092175725554e-07 6 1 4 4
-3.988799578337828e-08 6 1 5 5
3.171723858633981e-07 6 2 1 1
-1.2672783919896623e-06 6 2 2 2
-3.7971431943357404e-07 6 2 3 3
-2.97845721653579e-07 6 2 4 4
-2.1608650881287515e-08 6 2 5 5
1.0550873065410278e-09 6 2 6 1
2.4336357571798654e-09 6 2 6 2
-6.702571764784821e-07 6 3 1 1
-5.674992550523821e-07 6 3 2 2
2.467420695563351e-05 6 3 3 3
-1.0697235643745758e-08 6 3 4 3
-7.39243890429983e-08 6 3 4 4
-1.5763872966575063e-07 6 3 5 5
1.9153762523927595e-07 6 4 1 1
4.4337588447752445e-07 6 4 2 2
-1.7406856465227614e-08 6 4 3 3
-4.883210216494123e-09 6 4 4 3
-1.1256317757170122e-05 6 4 4 4
-4.187813012055714e-08 6 4 5 5
-2.004313599761968e-05 6 5 1 1
1.7669078903793346e-08 6 5 2 1
1.9032405490571716e-05 6 5 2 2
8.901685919133693e-09 6 5 3 1
1.9827090668700326e-05 6 5 3 3
-1.446620956928834e-09 6 5 4 1
3.3924184525328623e-09 6 5 4 2
-1.652410780409467e-08 6 5 4 3
-1.9978219290095178e-05 6 5 4 4
6.011425775568775e-08 6 5 5 3
4.09392142528211e-08 6 5 5 4
-0.004878303174695816 6 5 5 5
1.8764316710343688e-09 6 5 6 1
-4.20482222289639e-08 6 5 6 3
4.9068656805950305e-08 6 5 6 4
2.8522211532622245e-05 6 5 6 5
0.13840638716216144 6 6 1 1
4.009429169901191e-06 6 6 2 1
0.14726199562373127 6 6 2 2
-6.329861133666394e-06 6 6 3 1
5.983070195076679e-07 6 6 3 2
0.14737096253096854 6 6 3 3
-1.3960079276486999e-06 6 6 4 1
3.307718403077233e-06 6 6 4 2
-3.050660740418879e-06 6 6 4 3
0.1398483227729666 6 6 4 4
-2.8316171885975107e-08 6 6 5 1
-6.43350220532903e-08 6 6 5 2
8.370677341682353e-09 6 6 5 3
1.120761241871198e-07 6 6 5 4
0.15169359321963571 6 6 5 5
7.652819342606889e-07 6 6 6 1
7.556884078270123e-08 6 6 6 2
-2.350005693529512e-05 6 6 6 3
1.4343961972311699e-05 6 6 6 4
0.004885442294329456 6 6 6 5
2.2221438511415617 6 6 6 6
1.0240119906531926e-06 7 1 1 1
2.0604471336782271e-07 7 1 2 2
1.2587502456316798e-07 7 1 3 3
-7.414337126037676e-08 7 1 4 4
1.0290735150313438e-07 7 1 5 5
2.7411312384285285e-07 7 1 6 6
-1.957415820715223e-07 7 2 1 1
-1.8803832715625137e-06 7 2 2 2
3.129360228347253e-07 7 2 3 3
-1.3717059451810905e-07 7 2 4 4
1.7366765968267269e-07 7 2 5 5
4.272996032422869e-07 7 2 6 6
1.0131834322180904e-09 7 2 7 1
2.510942873012123e-09 7 2 7 2
4.4154351095472154e-07 7 3 1 1
3.712070105336608e-07 7 3 2 2
1.6630120857230929e-09 7 3 3 1
-1.8488461745341015e-05 7 3 3 3
7.242309467838259e-09 7 3 4 3
3.324570022046456e-08 7 3 4 4
1.30364882097394e-07 7 3 5 5
3.124158150499178e-08 7 3 6 5
1.3546100222348912e-05 7 3 6 6
-1.5895801109380726e-07 7 4 1 1
-2.6398707565755877e-07 7 4 2 2
-6.372893103879926e-08 7 4 3 3
4.954635959988954e-09 7 4 4 3
1.1844891207363663e-05 7 4 4 4
-3.4387102876690894e-08 7 4 5 5
-1.718279725673045e-08 7 4 6 5
-7.1940728369445675e-06 7 4 6 6
-1.4445841770838713e-06 7 5 1 1
1.3084006346323312e-09 7 5 2 1
1.4468321934614884e-06 7 5 2 2
2.394090786855929e-07 7 5 3 3
-5.112836852915591e-07 7 5 4 4
-0.00011178373005439619 7 5 5 5
4.938213563002456e-07 7 5 6 5
0.00010024935484520949 7 5 6 6
1.0805988101078596e-08 7 5 7 3
1.6195101212941392e-08 7 5 7 4
6.32826641556573e-06 7 5 7 5
-7.833243839982237e-05 7 6 1 1
1.3378133524134253e-07 7 6 2 1
0.00021690074597880684 7 6 2 2
1.8322707151400225e-08 7 6 3 1
-4.461934142388092e-09 7 6 3 2
-0.00021805534383652315 7 6 3 3
-7.204623873424424e-09 7 6 4 1
5.636826470005593e-09 7 6 4 2
1.2874912897522913e-07 7 6 4 3
9.20176425912867e-05 7 6 4 4
-1.0300927008967497e-09 7 6 5 3
-4.991296267789297e-06 7 6 5 5
-1.6138027175977915e-09 7 6 6 1
-5.203601444931632e-08 7 6 6 2
7.761976492870723e-07 7 6 6 3
-2.976683233824065e-07 7 6 6 4
6.256396761820947e-06 7 6 6 5
1.0684496772068964e-06 7 6 6 6
3.624399040949209e-08 7 6 7 1
-3.686464515305821e-08 7 6 7 2
-1.2412647719422855e-06 7 6 7 3
8.535389394647939e-07 7 6 7 4
0.0002712613335213878 7 6 7 5
0.11495119254981771 7 6 7 6
0.13825557584505285 7 7 1 1
4.054951778407565e-06 7 7 2 1
0.14721187518769024 7 7 2 2
-6.309380874748521e-06 7 7 3 1
5.967752410490275e-07 7 7 3 2
0.14727670951721009 7 7 3 3
-1.3880917057872068e-06 7 7 4 1
3.292625968953437e-06 7 7 4 2
-3.079550784207581e-06 7 7 4 3
0.13968667874383506 7 7 4 4
-2.800650775823477e-08 7 7 5 1
-6.502100525117698e-08 7 7 5 2
1.2776514931143418e-08 7 7 5 3
1.0641630472004337e-07 7 7 5 4
0.151733856501955 7 7 5 5
7.439562662959468e-07 7 7 6 1
3.41412389948384e-08 7 7 6 2
-2.0847438551722405e-05 7 7 6 3
1.2854328182163376e-05 7 7 6 4
0.004343429797861003 7 7 6 5
1.9923300679637257 7 7 6 6
3.470903616171855e-07 7 7 7 1
4.481407327921732e-07 7 7 7 2
1.5203905343821033e-05 7 7 7 3
-8.33018307072841e-06 7 7 7 4
0.00011279633704362227 7 7 7 5
9.700596142749487e-07 7 7 7 6
2.2223207953034647 7 7 7 7
-4.04839943203021e-06 8 1 1 1
1.9451253294794924e-09 8 1 2 1
2.130890617763681e-07 8 1 2 2
1.4193439345285838e-09 8 1 3 1
2.484692462896689e-07 8 1 3 3
-2.0307919179057653e-09 8 1 4 1
7.801638293550705e-08 8 1 4 4
1.8092893687687315e-06 8 1 5 5
-3.1820236542196643e-09 8 1 6 5
4.082779726318125e-07 8 1 6 6
4.097414746859676e-07 8 1 7 7
2.3561474411213973e-09 8 1 8 1
-2.6478691422202493e-09 8 2 1 1
-1.5274342082229488e-09 8 2 2 1
-3.43609806300115e-06 8 2 2 2
1.5187848339851426e-09 8 2 3 2
9.125859014827134e-08 8 2 3 3
4.3893252976725334e-08 8 2 4 4
1.6026806535331155e-06 8 2 5 5
-3.3723138763876128e-09 8 2 6 5
1.4673107629911314e-07 8 2 6 6
1.4739908513872316e-07 8 2 7 7
1.0033355681108943e-09 8 2 8 1
1.1415796333923854e-06 8 3 1 1
7.00058721374827e-07 8 3 2 2
-1.2208665910431925e-09 8 3 3 1
-3.724743147434625e-05 8 3 3 3
1.5572338016330445e-08 8 3 4 3
2.5085061684014515e-07 8 3 4 4
3.1864484772722824e-05 8 3 5 5
-7.459698971174916e-08 8 3 6 5
2.9010360398997603e-07 8 3 6 6
2.494532633846293e-09 8 3 7 6
2.9288013009500984e-07 8 3 7 7
1.351810346790883e-09 8 3 8 3
3.0657557942857907e-07 8 4 1 1
4.0108735767385356e-07 8 4 2 2
1.0379512555006932e-07 8 4 3 3
-5.350480124644652e-09 8 4 4 3
-1.2760514483935533e-05 8 4 4 4
1.2839511579555728e-05 8 4 5 5
-2.9667304581840273e-08 8 4 6 5
2.893770272803703e-07 8 4 6 6
2.8991159145337257e-07 8 4 7 7
7.183979371805524e-05 8 5 1 1
4.575982524438706e-08 8 5 2 1
0.00017212049427131504 8 5 2 2
3.331929321903021e-08 8 5 3 1
-1.0458414529376818e-08 8 5 3 2
-0.00017090506083508518 8 5 3 3
1.4179130397526643e-08 8 5 4 1
-1.1024523686395127e-08 8 5 4 2
4.0735767911499053e-08 8 5 4 3
-7.226294643317987e-05 8 5 4 4
-4.9452188387433815e-08 8 5 5 1
1.956159775392988e-06 8 5 5 3
8.655875564976783e-07 8 5 5 4
-4.594338860352124e-05 8 5 5 5
1.4237426635505375e-09 8 5 6 2
-6.937248921438921e-09 8 5 6 3
-1.1220684995249965e-09 8 5 6 4
1.4545117855216275e-05 8 5 6 5
3.90000685366436e-05 8 5 6 6
2.0211416417536256e-09 8 5 7 3
-5.4138990657591044e-05 8 5 7 5
1.1332817317277613e-06 8 5 7 6
3.9290641202682765e-05 8 5 7 7
-6.719536178968125e-08 8 5 8 1
-3.366745788500142e-08 8 5 8 2
-1.3792913355671124e-06 8 5 8 3
-9.274999267746431e-07 8 5 8 4
0.11493246863452748 8 5 8 5
1.5285137110929273e-06 8 6 1 1
-1.1342718704958612e-09 8 6 2 1
-9.81312119895552e-07 8 6 2 2
-1.0630504594841558e-06 8 6 3 3
5.462306544624816e-07 8 6 4 4
-7.450421515902055e-09 8 6 5 3
-3.929315544756374e-09 8 6 5 4
0.00022931119885771561 8 6 5 5
9.45742560243507e-09 8 6 6 3
5.253696952017857e-09 8 6 6 4
1.4208809965373127e-06 8 6 6 5
-0.0002580505454006028 8 6 6 6
-2.4232072179369797e-09 8 6 7 3
1.130523803559381e-09 8 6 7 4
2.30511142598662e-07 8 6 7 5
5.415372924043145e-05 8 6 7 6
-0.00022939719090849854 8 6 7 7
7.592867079270177e-09 8 6 8 3
4.006737649698357e-09 8 6 8 4
-0.0002707683584295008 8 6 8 5
1.9598921904499146e-06 8 6 8 6
-4.4857205370455945e-06 8 7 1 1
3.827302770455675e-09 8 7 2 1
3.979311121609494e-06 8 7 2 2
1.6449624582034693e-09 8 7 3 1
4.339012374325806e-06 8 7 3 3
-3.471565840811996e-09 8 7 4 3
-4.023907522441824e-06 8 7 4 4
1.0645974261713325e-08 8 7 5 3
7.237785181887719e-09 8 7 5 4
-0.0008671647076336857 8 7 5 5
-9.988795576568238e-09 8 7 6 3
5.940260450237099e-09 8 7 6 4
4.085573024268392e-06 8 7 6 5
0.0008661191818947575 8 7 6 6
1.3383286177091956e-08 8 7 7 3
2.935697472647024e-09 8 7 7 4
2.668787900675856e-06 8 7 7 5
-1.4316483126021851e-05 8 7 7 6
0.0009741514005092448 8 7 7 7
-1.6052156368322034e-08 8 7 8 3
-7.4384103863702955e-09 8 7 8 4
-6.2180362877790954e-06 8 7 8 5
-2.3523416349596586e-07 8 7 8 6
2.3040316006624223e-06 8 7 8 7
0.14720254834466157 8 8 1 1
-3.5208384989755515e-06 8 8 2 1
0.13940229923140843 8 8 2 2
-1.0006181750744656e-05 8 8 3 1
9.192644375038679e-07 8 8 3 2
0.13874489686027128 8 8 3 3
-7.292503777320958e-07 8 8 4 1
1.8275630204889735e-06 8 8 4 2
3.741818435657865e-06 8 8 4 3
0.1475892826820876 8 8 4 4
1.2002167139788426e-07 8 8 5 1
2.3300327018475243e-07 8 8 5 2
-2.2643452751408104e-05 8 8 5 3
-1.5246873717264287e-05 8 8 5 4
1.9920906594924943 8 8 5 5
-3.923858780394462e-08 8 8 6 1
-2.149104674944051e-08 8 8 6 2
-1.6892470500578277e-07 8 8 6 3
-4.281847228729298e-08 8 8 6 4
-0.004335585756481037 8 8 6 5
0.15204806481665437 8 8 6 6
1.0391229032880476e-07 8 8 7 1
1.7617781921243193e-07 8 8 7 2
1.3210338105811687e-07 8 8 7 3
-3.8047035254034966e-08 8 8 7 4
-9.919343471952284e-05 8 8 7 5
-5.2048665701563026e-06 8 8 7 6
0.1520940037172653 8 8 7 7
1.8512540512288503e-06 8 8 8 1
1.6646652756937275e-06 8 8 8 2
3.5792992579811026e-05 8 8 8 3
1.4256436895352643e-05 8 8 8 4
-4.597474770758029e-05 8 8 8 5
0.0002579179673204949 8 8 8 6
-0.0009757062972150693 8 8 8 7
2.2220067176837537 8 8 8 8
3.3732208597369044e-06 9 1 1 1
-1.5541449060924223e-09 9 1 2 1
-1.0043377533247766e-08 9 1 2 2
-1.4635806318089964e-09 9 1 3 1
-5.410517317954443e-08 9 1 3 3
2.1495547942946505e-09 9 1 4 1
-1.0894099431797662e-07 9 1 4 4
-1.6430247402861884e-07 9 1 5 5
-3.286884215653856e-09 9 1 6 5
-1.6121230996676187e-06 9 1 6 6
2.355414660425252e-08 9 1 7 6
-1.6460413643288084e-06 9 1 7 7
-1.6751484919188296e-07 9 1 8 8
-2.675693335423568e-07 9 2 1 1
1.623392865923742e-09 9 2 2 1
3.3458884070872524e-06 9 2 2 2
-6.769639417100577e-08 9 2 3 3
-2.5579194692537334e-07 9 2 4 4
-4.654327861589645e-07 9 2 5 5
-2.259049738917748e-09 9 2 6 5
-1.5008130558078415e-06 9 2 6 6
4.6673731950713335e-08 9 2 7 6
-1.5119460090615238e-06 9 2 7 7
-4.695634416443005e-07 9 2 8 8
1.0865192765139625e-09 9 2 9 1
2.4506928853603636e-09 9 2 9 2
-9.185061547249302e-07 9 3 1 1
-7.419824194420911e-07 9 3 2 2
3.100030008680176e-05 9 3 3 3
-1.2836000927801878e-08 9 3 4 3
-8.612377140599374e-08 9 3 4 4
-3.6398994308523674e-07 9 3 5 5
-6.032591654118268e-08 9 3 6 5
-2.955643061068138e-05 9 3 6 6
-7.656041992917666e-09 9 3 7 5
4.795968347522332e-08 9 3 7 6
-2.9546014748377254e-05 9 3 7 7
6.126751266430002e-09 9 3 8 5
7.699144469930137e-09 9 3 8 6
-1.666084910002418e-08 9 3 8 7
-3.380775060731579e-07 9 3 8 8
1.044980930964582e-09 9 3 9 3
-7.400161732603522e-07 9 4 1 1
-1.2528211504301123e-06 9 4 2 2
-2.734059554730174e-07 9 4 3 3
1.742837783823243e-08 9 4 4 3
4.170346114629793e-05 9 4 4 4
-2.766743964475279e-07 9 4 5 5
-8.925364967674218e-08 9 4 6 5
-3.57217260080558e-05 9 4 6 6
1.25445947380737e-09 9 4 7 5
4.6384498984467504e-08 9 4 7 6
-3.565096571434783e-05 9 4 7 7
1.2660364389329705e-09 9 4 8 5
1.7747569908538311e-09 9 4 8 6
-1.5200095412719878e-08 9 4 8 7
-2.7065652153865493e-07 9 4 8 8
1.6718478160807585e-09 9 4 9 4
6.191556503981144e-05 9 5 1 1
-5.151638300945996e-08 9 5 2 1
-5.2029177438579996e-05 9 5 2 2
-2.5618160396933926e-08 9 5 3 1
2.223910111972013e-09 9 5 3 2
-5.8106236651183895e-05 9 5 3 3
4.542457676546817e-09 9 5 4 1
-1.0149545846407379e-08 9 5 4 2
4.7491641007017404e-08 9 5 4 3
5.6307871632122404e-05 9 5 4 4
1.7312952017756008e-09 9 5 5 1
2.4937471501941247e-09 9 5 5 2
-1.6883763253672762e-07 9 5 5 3
-1.183631523350158e-07 9 5 5 4
0.014312287330998012 9 5 5 5
-5.012172181574501e-09 9 5 6 1
1.3858492599370672e-07 9 5 6 3
-9.405632622392741e-08 9 5 6 4
-6.5616243483667e-05 9 5 6 5
-0.012727216803066314 9 5 6 6
-1.2339652438517317e-09 9 5 7 1
-1.8810335274970576e-09 9 5 7 2
-9.355282702155462e-08 9 5 7 3
5.0531327810691924e-08 9 5 7 4
-1.3747283927308605e-06 9 5 7 5
-2.4635509186652707e-09 9 5 7 6
-0.01272749990771853 9 5 7 7
9.560759605635777e-09 9 5 8 1
9.992342000679914e-09 9 5 8 2
2.137815370986093e-07 9 5 8 3
8.37467685339852e-08 9 5 8 4
0.0003754152220483676 9 5 8 5
1.3978767191765512e-06 9 5 8 6
-1.2022865961785482e-05 9 5 8 7
0.012720561268919935 9 5 8 8
1.0400176129549395e-08 9 5 9 1
7.119690049731812e-09 9 5 9 2
2.2312128365383283e-07 9 5 9 3
2.774802457395402e-07 9 5 9 4
0.0002004470166338795 9 5 9 5
-0.0001722918115641117 9 6 1 1
4.416577730182351e-08 9 6 2 1
-7.384492902748086e-05 9 6 2 2
-2.6645257332181186e-08 9 6 3 1
8.672656598730278e-09 9 6 3 2
6.294877621878624e-05 9 6 3 3
-1.744502110939903e-08 9 6 4 1
1.3446129737795325e-08 9 6 4 2
4.622948184195654e-08 9 6 4 3
0.00017331119477591737 9 6 4 4
-1.0887559887433652e-09 9 6 5 1
4.82733158665877e-09 9 6 5 3
-9.351511049260154e-09 9 6 5 4
-2.2939077405095956e-05 9 6 5 5
5.169738729326035e-09 9 6 6 1
4.2634629768929146e-08 9 6 6 2
-1.8803303434456398e-06 9 6 6 3
-2.1904962254527296e-06 9 6 6 4
-0.0007946362820705542 9 6 6 5
3.1493435590354644e-05 9 6 6 6
2.3732131624971086e-08 9 6 7 1
4.626631100685103e-08 9 6 7 2
5.055566029314637e-08 9 6 7 3
4.773866295028426e-08 9 6 7 4
3.8842631889054845e-08 9 6 7 5
3.6206501619604035e-06 9 6 7 6
2.8251110627738796e-05 9 6 7 7
3.4391481520069282e-09 9 6 8 3
-3.2442050339168353e-09 9 6 8 4
-3.531499542579149e-06 9 6 8 5
-0.00037612872381377784 9 6 8 6
1.0254403374167952e-08 9 6 8 7
-1.5012119686724454e-05 9 6 8 8
-2.8569428141755116e-08 9 6 9 1
-4.586511122749157e-08 9 6 9 2
-1.238883921315364e-06 9 6 9 3
8.111086756798783e-07 9 6 9 4
0.00027089404038676667 9 6 9 5
0.11493375734184466 9 6 9 6
7.315641834786967e-05 9 7 1 1
-6.281364718576822e-08 9 7 2 1
-6.558304777404289e-05 9 7 2 2
2.3436873498327683e-08 9 7 3 1
-2.133141847665116e-09 9 7 3 2
-5.023517580388625e-05 9 7 3 3
-1.4440047279993706e-09 9 7 4 1
4.026356525742795e-09 9 7 4 2
5.3456639758278665e-08 9 7 4 3
7.848723199932886e-05 9 7 4 4
-4.511476992530796e-09 9 7 5 3
5.079342456688849e-09 9 7 5 4
-0.00014946121633321248 9 7 5 5
2.3995568053805832e-08 9 7 6 1
4.688487752529556e-08 9 7 6 2
4.943233661566541e-08 9 7 6 3
4.591853746419879e-08 9 7 6 4
4.6300504426613355e-07 9 7 6 5
3.55328744374452e-05 9 7 6 6
-2.9645506732314465e-08 9 7 7 1
3.175419408698774e-08 9 7 7 2
-1.868019665995959e-06 9 7 7 3
-2.1158340692646596e-06 9 7 7 4
-0.0007948305320731206 9 7 7 5
1.8040659792496134e-06 9 7 7 6
3.850414206880607e-05 9 7 7 7
-2.1030188457526824e-09 9 7 8 1
-5.881509513881894e-09 9 7 8 3
-1.1788118467872003e-09 9 7 8 4
-8.183768288396625e-07 9 7 8 5
-3.138682244466903e-08 9 7 8 6
-0.0003758704204216162 9 7 8 7
-0.00015365653161567423 9 7 8 8
1.40981458682047e-08 9 7 9 1
-1.914968454962725e-08 9 7 9 2
8.92781367287368e-07 9 7 9 3
-4.4482332722534976e-07 9 7 9 4
4.952867549510871e-06 9 7 9 5
-3.1515402242052195e-08 9 7 9 6
0.11494321951486242 9 7 9 7
2.9173020632468742e-05 9 8 1 1
-2.392101617819564e-08 9 8 2 1
-2.3742342869831503e-05 9 8 2 2
-1.1841396278291195e-08 9 8 3 1
-2.8525036715235506e-05 9 8 3 3
2.2739983762779098e-09 9 8 4 1
-4.9188866341530255e-09 9 8 4 2
2.2123990891090063e-08 9 8 4 3
2.4787222458081495e-05 9 8 4 4
1.0224229797432542e-09 9 8 5 2
-6.05514573900344e-08 9 8 5 3
-4.420674960308588e-08 9 8 5 4
0.006020765599137343 9 8 5 5
-2.341072763493049e-09 9 8 6 1
6.787089014680687e-08 9 8 6 3
-4.1768821146746275e-08 9 8 6 4
-2.8197003927724375e-05 9 8 6 5
-0.00602112611662067 9 8 6 6
-1.0110012011458512e-09 9 8 7 2
-4.513644646385405e-08 9 8 7 3
2.2910292682919604e-08 9 8 7 4
-1.3994074394708289e-06 9 8 7 5
-2.1937512753781804e-08 9 8 7 6
-0.006021021017437887 9 8 7 7
4.283766937090264e-09 9 8 8 1
4.6696320096818595e-09 9 8 8 2
1.077500328601739e-07 9 8 8 3
3.7374226042798385e-08 9 8 8 4
0.0007944424694252009 9 8 8 5
-2.5882352324102995e-07 9 8 8 6
-5.933870551571093e-06 9 8 8 7
0.006772781739391039 9 8 8 8
4.96268765657637e-09 9 8 9 1
3.4063159560244456e-09 9 8 9 2
1.0766239429857868e-07 9 8 9 3
1.3012984627134453e-07 9 8 9 4
9.102310910184873e-05 9 8 9 5
-1.4471168939973614e-05 9 8 9 6
5.323802736452391e-05 9 8 9 7
5.0468187635989e-05 9 8 9 8
0.13838313834994223 9 9 1 1
3.919930088686692e-06 9 9 2 1
0.14704058875514656 9 9 2 2
-6.31348643334365e-06 9 9 3 1
5.960806208798937e-07 9 9 3 2
0.14711555447895425 9 9 3 3
-1.3904617396760508e-06 9 9 4 1
3.2997017388299903e-06 9 9 4 2
-2.9680482811754975e-06 9 9 4 3
0.1397928289845605 9 9 4 4
-2.776645710777885e-08 9 9 5 1
-6.380207123957764e-08 9 9 5 2
2.8588859351403242e-08 9 9 5 3
1.334414897497009e-07 9 9 5 4
0.1522507027488706 9 9 5 5
6.783500265036098e-07 9 9 6 1
2.4064820585267665e-08 9 9 6 2
-2.08422797681006e-05 9 9 6 3
1.281070609675049e-05 9 9 6 4
0.004341703130355066 9 9 6 5
1.9921052265089958 9 9 6 6
2.8869769411773995e-07 9 9 7 1
4.6086168286819874e-07 9 9 7 2
1.3662075365118892e-05 9 9 7 3
-7.34235771940078e-06 9 9 7 4
0.00010017674274144994 9 9 7 5
7.827601136090878e-07 9 9 7 6
1.9921830618631913 9 9 7 7
4.1273485214213836e-07 9 9 8 1
1.4948236769255208e-07 9 9 8 2
3.1512798759494937e-07 9 9 8 3
3.0810278972961853e-07 9 9 8 4
4.972192936725021e-05 9 9 8 5
-0.00022931774916955515 9 9 8 6
0.0008654831296143325 9 9 8 7
0.15259854606812664 9 9 8 8
-1.6767566382345902e-06 9 9 9 1
-1.5094381894177336e-06 9 9 9 2
-3.3042449796444956e-05 9 9 9 3
-4.012990643155866e-05 9 9 9 4
-0.014311888031210104 9 9 9 5
3.1934222046008096e-05 9 9 9 6
4.103342495515082e-05 9 9 9 7
-0.006770121587034236 9 9 9 8
2.221815864358878 9 9 9 9
-2.1407216200287574e-06 10 1 1 1
-2.2691489196114112e-07 10 1 2 2
1.493839118133383e-09 10 1 3 1
-1.2645474561662538e-07 10 1 3 3
3.193431162876416e-07 10 1 4 4
5.617830161550573e-07 10 1 5 5
1.5197225120281396e-07 10 1 6 6
1.5156027570046343e-07 10 1 7 7
-4.999040253392723e-08 10 1 8 5
5.89423411835735e-07 10 1 8 8
2.6785537555329846e-09 10 1 9 5
1.0014193581515846e-09 10 1 9 8
1.5439265385778008e-07 10 1 9 9
2.394062825232982e-09 10 1 10 1
1.6311812928689925e-07 10 2 1 1
1.1107383742009623e-06 10 2 2 2
-3.821885171848031e-08 10 2 3 3
1.253098523074872e-07 10 2 4 4
2.4924053264226755e-07 10 2 5 5
1.0646690282428879e-07 10 2 6 6
1.0614873769342084e-07 10 2 7 7
-2.1954839890805392e-08 10 2 8 5
2.7178500621541876e-07 10 2 8 8
1.0775314186919316e-07 10 2 9 9
-2.992185125759101e-07 10 3 1 1
-1.8466624730945456e-07 10 3 2 2
1.2926696959332423e-05 10 3 3 3
-5.058628942299928e-09 10 3 4 3
-6.428984116229736e-08 10 3 4 4
-8.153962339657979e-06 10 3 5 5
1.8949038008108228e-08 10 3 6 5
-5.735490437634083e-08 10 3 6 6
1.986041630840966e-09 10 3 7 5
-2.4381456745543657e-09 10 3 7 6
-5.662190860300703e-08 10 3 7 7
-5.056914892542625e-08 10 3 8 5
1.7236350662073835e-09 10 3 8 7
-8.302825120663477e-06 10 3 8 8
-5.297137672632948e-08 10 3 9 5
-2.4308559929791226e-09 10 3 9 6
-3.16721942018144e-08 10 3 9 8
-6.959944168260241e-08 10 3 9 9
3.183760156436253e-07 10 4 1 1
3.8647017917414945e-07 10 4 2 2
1.8343301744501718e-08 10 4 3 3
-6.89354892804538e-09 10 4 4 3
-1.6366223425429568e-05 10 4 4 4
1.159524641664391e-05 10 4 5 5
-2.738885627993399e-08 10 4 6 5
1.6958156834387846e-08 10 4 6 6
1.7356629511528006e-08 10 4 7 7
-5.6614866392227955e-08 10 4 8 5
1.6674961833263784e-09 10 4 8 6
-6.440958808625183e-09 10 4 8 7
1.1724083489756714e-05 10 4 8 8
8.198629521215681e-08 10 4 9 5
1.1217442516216088e-09 10 4 9 6
-5.010916221106193e-09 10 4 9 7
3.6040713119715987e-08 10 4 9 8
1.0963930370843664e-08 10 4 9 9
0.00021726798254579385 10 5 1 1
-1.3868980140486131e-07 10 5 2 1
-8.959101314114742e-05 10 5 2 2
-1.6264945035541588e-08 10 5 3 1
4.3419376958168816e-09 10 5 3 2
8.636972059687316e-05 10 5 3 3
8.439093234914535e-09 10 5 4 1
-5.929365285228395e-09 10 5 4 2
-1.2739059589766928e-07 10 5 4 3
-0.0002192907408937904 10 5 4 4
-4.6139805708840285e-08 10 5 5 1
-4.56174630116305e-09 10 5 5 2
-3.6072231949257884e-07 10 5 5 3
6.606151767016946e-07 10 5 5 4
3.3660879774110204e-05 10 5 5 5
2.087662420414977e-09 10 5 6 3
1.173513328126397e-05 10 5 6 5
-3.091056376519181e-05 10 5 6 6
-0.0001330317943272729 10 5 7 5
3.3364265627975753e-07 10 5 7 6
-3.073392483167603e-05 10 5 7 7
-5.034125537951935e-08 10 5 8 1
-2.173023284740876e-08 10 5 8 2
-4.8740169083322554e-08 10 5 8 3
-5.575561668007768e-08 10 5 8 4
-2.885778402158734e-06 10 5 8 5
-1.24357924505755e-08 10 5 8 6
-2.2120595279853965e-08 10 5 8 7
2.9930085688914873e-05 10 5 8 8
2.303725128619464e-09 10 5 9 3
3.1694645458081677e-09 10 5 9 4
-0.00026861480891065545 10 5 9 5
5.745935299071475e-07 10 5 9 6
-1.820058270134549e-06 10 5 9 7
1.9628562437913502e-07 10 5 9 8
-3.8160804979455246e-05 10 5 9 9
-1.387173045093898e-08 10 5 10 1
2.027877024795816e-08 10 5 10 2
-1.3242489773914271e-06 10 5 10 3
-8.804157187590233e-07 10 5 10 4
0.11494360045206978 10 5 10 5
-3.7138263041473836e-08 10 6 1 1
-5.173701939254102e-07 10 6 2 2
-1.2528386844797995e-06 10 6 3 3
1.2777509498801529e-09 10 6 4 3
1.8203917456422816e-06 10 6 4 4
-1.4841712497562307e-09 10 6 5 3
-3.1707748222741583e-09 10 6 5 4
0.00019019761057567294 10 6 5 5
-1.086253421980999e-09 10 6 6 3
-6.953808495960709e-09 10 6 6 4
-2.8344278696896116e-06 10 6 6 5
-0.0002140350159826624 10 6 6 6
-2.7074284885151328e-09 10 6 7 3
1.8377524445671072e-09 10 6 7 4
6.070027053815361e-07 10 6 7 5
0.00013311855104797444 10 6 7 6
-0.00019027833952125922 10 6 7 7
3.316543358618895e-09 10 6 8 3
1.5111573226441174e-09 10 6 8 4
-3.373649202372731e-08 10 6 8 5
-7.657644751738048e-07 10 6 8 6
-2.1236605692263257e-07 10 6 8 7
0.00019018814802247176 10 6 8 8
5.610449058679623e-09 10 6 9 4
3.899504621578923e-06 10 6 9 5
0.00026904454112779857 10 6 9 6
-1.1545067107891156e-08 10 6 9 7
1.177625115484691e-06 10 6 9 8
-0.00019018685564178405 10 6 9 9
2.3796138159954068e-09 10 6 10 3
3.5146645149824277e-09 10 6 10 4
-0.00027080261498623517 10 6 10 5
1.4680393988098644e-06 10 6 10 6
-1.0400255205339695e-05 10 7 1 1
8.789626029963707e-09 10 7 2 1
9.041333293441217e-06 10 7 2 2
4.300463892883568e-09 10 7 3 1
9.94237872626774e-06 10 7 3 3
1.7026852098424223e-09 10 7 4 2
-7.938021254718745e-09 10 7 4 3
-9.182468332816675e-06 10 7 4 4
2.6173474870969706e-08 10 7 5 3
1.7709990775927196e-08 10 7 5 4
-0.0021290011365671393 10 7 5 5
-2.392795662678073e-08 10 7 6 3
1.508478869538292e-08 10 7 6 4
1.004869127338419e-05 10 7 6 5
0.002133008855854075 10 7 6 6
1.3229906189366443e-08 10 7 7 3
-1.4642406571250142e-08 10 7 7 4
-1.6365938504978494e-06 10 7 7 5
-1.1877501500004837e-05 10 7 7 6
0.002399621294817212 10 7 7 7
-1.6511275479633297e-09 10 7 8 1
-1.7173669842754394e-09 10 7 8 2
-3.619120064877418e-08 10 7 8 3
-1.4826830085656051e-08 10 7 8 4
9.12706459509707e-08 10 7 8 5
-5.423140502097096e-07 10 7 8 6
1.3161090615061936e-06 10 7 8 7
-0.002128560887487504 10 7 8 8
-1.6914180578936855e-09 10 7 9 1
-1.275014088587779e-09 10 7 9 2
-3.1752200532209246e-08 10 7 9 3
-4.2051310770362036e-08 10 7 9 4
-2.9439011526111497e-05 10 7 9 5
5.3296131553707305e-08 10 7 9 6
0.0002693854278621917 10 7 9 7
-1.3689924707180874e-05 10 7 9 8
0.0021322977743713574 10 7 9 9
9.993396727899609e-09 10 7 10 3
-1.533930180673593e-08 10 7 10 4
-6.337364361060752e-06 10 7 10 5
-4.737630482762547e-07 10 7 10 6
6.208670141084227e-06 10 7 10 7
5.9335269896190866e-05 10 8 1 1
-6.304162706405354e-08 10 8 2 1
-8.019094595385346e-05 10 8 2 2
8.306642378361407e-09 10 8 3 1
-1.0731317438779785e-09 10 8 3 2
-7.56870312013016e-05 10 8 3 3
-3.6800894398330384e-09 10 8 4 1
8.584802334838662e-09 10 8 4 2
5.708351857635884e-08 10 8 4 3
6.109792898826538e-05 10 8 4 4
-5.065513055594659e-08 10 8 5 1
-2.2137550594720796e-08 10 8 5 2
-4.9832886657002625e-08 10 8 5 3
-5.5725216617270655e-08 10 8 5 4
-2.363732173436306e-05 10 8 5 5
-2.2446770696915503e-09 10 8 6 3
3.4043108976108474e-07 10 8 6 5
0.00013290222691188957 10 8 6 6
-1.7294464707440054e-09 10 8 7 4
1.0112786342573726e-08 10 8 7 5
-1.8255897413694222e-08 10 8 7 6
0.00013201696674206123 10 8 7 7
-1.9381576373621645e-08 10 8 8 1
1.9118993560086066e-08 10 8 8 2
-5.089982242295689e-07 10 8 8 3
7.89506270791246e-07 10 8 8 4
1.8935053543034147e-06 10 8 8 5
1.1867900228426809e-05 10 8 8 6
-0.00013289110430675442 10 8 8 7
-2.7687352945478895e-05 10 8 8 8
-1.174237931543794e-09 10 8 9 1
-2.1154375440831146e-09 10 8 9 2
-9.781005906689307e-09 10 8 9 3
-1.424119705851579e-09 10 8 9 4
-1.0825292567439986e-06 10 8 9 5
1.0377052130972875e-07 10 8 9 6
-1.987237080447772e-07 10 8 9 7
-0.00026931834503797307 10 8 9 8
0.0001329670395096269 10 8 9 9
-2.7267277345045326e-09 10 8 10 1
2.7597469206434475e-08 10 8 10 2
1.8730966586515046e-06 10 8 10 3
8.127595445181674e-07 10 8 10 4
-2.5713869981693326e-06 10 8 10 5
1.4308190063670625e-05 10 8 10 6
-5.4084357887690924e-05 10 8 10 7
0.11494720390570563 10 8 10 8
-1.925368759632078e-05 10 9 1 1
1.646242504059015e-08 10 9 2 1
1.7156889214359666e-05 10 9 2 2
8.536716898892938e-09 10 9 3 1
2.011154234162094e-05 10 9 3 3
-1.5043553246340393e-09 10 9 4 1
3.4376614266046613e-09 10 9 4 2
-1.6612368219198827e-08 10 9 4 3
-1.9909230102157125e-05 10 9 4 4
5.0300447108046915e-08 10 9 5 3
4.028577409522398e-08 10 9 5 4
-0.004306756354905503 10 9 5 5
1.7070692180599259e-09 10 9 6 1
-4.814966435613274e-08 10 9 6 3
3.038388880348996e-08 10 9 6 4
2.048134822279908e-05 10 9 6 5
0.004309332915418999 10 9 6 6
2.951152959669732e-08 10 9 7 3
-1.956662109340204e-08 10 9 7 4
-1.373937169505408e-06 10 9 7 5
1.872709937501481e-08 10 9 7 6
0.004309515868001548 10 9 7 7
-3.878483888190235e-09 10 9 8 1
-3.585883392210436e-09 10 9 8 2
-7.566098737038334e-08 10 9 8 3
-2.7010181988383314e-08 10 9 8 4
1.8610745091036913e-07 10 9 8 5
-9.959125385799974e-07 10 9 8 6
3.185788296872781e-06 10 9 8 7
-0.004305770087867408 10 9 8 8
-3.5372131452683716e-09 10 9 9 1
-2.4989169830804765e-09 10 9 9 2
-7.540868162399564e-08 10 9 9 3
-9.391214557903586e-08 10 9 9 4
-6.517726398432977e-05 10 9 9 5
-1.177732243421856e-05 10 9 9 6
0.0001336114087703762 10 9 9 7
-3.076288766541879e-05 10 9 9 8
0.004846158728317195 10 9 9 9
1.8762086531835607e-08 10 9 10 3
-3.382452459658997e-08 10 9 10 4
0.0007946587230456377 10 9 10 5
-2.799731429027394e-06 10 9 10 6
1.0689281147803457e-05 10 9 10 7
0.00037663972357902353 10 9 10 8
2.95714494784634e-05 10 9 10 9
0.14736255750943916 10 10 1 1
-3.643868925456187e-06 10 10 2 1
0.13929046718539975 10 10 2 2
-9.981143943048232e-06 10 10 3 1
9.168711512678605e-07 10 10 3 2
0.13863412647674545 10 10 3 3
-7.277191838164424e-07 10 10 4 1
1.8263510717757937e-06 10 10 4 2
3.856737628530073e-06 10 10 4 3
0.14775561616637317 10 10 4 4
1.7422896868989225e-07 10 10 5 1
2.8765932775056475e-07 10 10 5 2
-2.2592132802284282e-05 10 10 5 3
-1.5201840735052629e-05 10 10 5 4
1.9922120849702298 10 10 5 5
-3.988411032210723e-08 10 10 6 1
-2.161600060653373e-08 10 10 6 2
-1.6576916092072344e-07 10 10 6 3
-4.646268470631628e-08 10 10 6 4
-0.00433681529129269 10 10 6 5
0.1516522137881274 10 10 6 6
1.0197577812559781e-07 10 10 7 1
1.7307276607184118e-07 10 10 7 2
1.3263673681703598e-07 10 10 7 3
-3.650472623753704e-08 10 10 7 4
-9.927167598683863e-05 10 10 7 5
-5.085649269523306e-06 10 10 7 6
0.1516970252749432 10 10 7 7
1.8556775528271088e-06 10 10 8 1
1.6293906989931389e-06 10 10 8 2
3.178375557957221e-05 10 10 8 3
1.2788007057148503e-05 10 10 8 4
-4.087007732721191e-05 10 10 8 5
0.00022930244500044228 10 10 8 6
-0.0008673695741449819 10 10 8 7
1.9922500071858587 10 10 8 8
-1.6506524364918051e-07 10 10 9 1