 &FCI NORB=20,NELEC=30,MS2=0,   
   ORBSYM=1,1,1,1,1,1,1,1,1,1,1,1,1,1,1,1,1,1,1,1,
   ISYM=1,
  &END
 0.3759651519924538 1 1 1 1
0.002083007670106505 2 1 1 1
0.010368116438358261 2 1 2 1
0.3256671049210611 2 2 1 1
0.0020326337360261904 2 2 2 1
0.3161168803402119 2 2 2 2
-0.000355523891069711 3 1 1 1
0.0003537729756218753 3 1 2 1
3.0966680217629525e-06 3 1 2 2
0.020996931764205258 3 1 3 1
-0.00033730553684996437 3 2 1 1
1.157592217970983e-05 3 2 2 1
-0.0004257525467445466 3 2 2 2
0.0008830823482703013 3 2 3 1
0.019735344770231936 3 2 3 2
0.3608021111390518 3 3 1 1
0.002484340954164263 3 3 2 1
0.32906953342409484 3 3 2 2
2.630927603289871e-05 3 3 3 1
-0.00011843954187993155 3 3 3 2
0.3747248295030816 3 3 3 3
0.0003445730340909058 4 1 1 1
-0.00014021053978970576 4 1 2 1
0.0001294261453014369 4 1 2 2
-0.0031650814977482095 4 1 3 1
0.009082646305211115 4 1 3 2
0.0002886947211010306 4 1 3 3
0.012843892644355369 4 1 4 1
-0.0007976780923067985 4 2 1 1
0.0005793144234656806 4 2 2 1
-0.00018338400441508974 4 2 2 2
0.02358981938420239 4 2 3 1
0.0038030475015592173 4 2 3 2
-0.00011432210007426366 4 2 3 3
-0.004378486118462626 4 2 4 1
0.047157796227335055 4 2 4 2
-0.0001396722423007092 4 3 1 1
-0.0007427590873956427 4 3 2 1
0.00040866225078923845 4 3 2 2
-2.92399002467018e-06 4 3 3 1
-2.1919892791357124e-05 4 3 3 2
0.00032350251183027107 4 3 3 3
-3.806253360374439e-06 4 3 4 1
-3.7598106466250856e-05 4 3 4 2
0.01053347199933348 4 3 4 3
0.3652628720182148 4 4 1 1
0.002248365131324986 4 4 2 1
0.3325507336105189 4 4 2 2
0.0004504587056643355 4 4 3 1
-0.0002302480183900125 4 4 3 2
0.35739735674859 4 4 3 3
0.00018790840350760995 4 4 4 1
0.0005089950205295472 4 4 4 2
0.0004382647464508094 4 4 4 3
0.38452242686519955 4 4 4 4
-0.0019018009645805289 5 1 1 1
0.0011097280681084797 5 1 2 1
-0.0004152954169929302 5 1 2 2
0.04574620880337357 5 1 3 1
0.006758447450658232 5 1 3 2
-0.00042003623721064575 5 1 3 3
-0.009231647980565362 5 1 4 1
0.07687074475994937 5 1 4 2
-0.00010926322838958071 5 1 4 3
0.0008226763730948498 5 1 4 4
0.1733045908270864 5 1 5 1
7.824419684355822e-05 5 2 1 1
3.360133035293948e-05 5 2 2 1
6.569048588124858e-05 5 2 2 2
0.003697110313007853 5 2 3 1
-0.0015189105436140531 5 2 3 2
3.968920385351736e-05 5 2 3 3
0.0017465675503169423 5 2 4 1
0.005442523294470064 5 2 4 2
9.862452507227605e-05 5 2 4 3
8.867930920411747e-05 5 2 4 4
0.01096166972293498 5 2 5 1
0.011592035429455588 5 2 5 2
0.011766782978723255 5 3 1 1
0.0006122457022040301 5 3 2 1
0.0052433279910237595 5 3 2 2
0.0010552067799460426 5 3 3 1
8.050983818692526e-05 5 3 3 2
0.007126245352046513 5 3 3 3
-0.00021149989774169156 5 3 4 1
0.0017235805809206947 5 3 4 2
-9.992163959650175e-05 5 3 4 3
0.00831858948783396 5 3 4 4
0.003720315342122611 5 3 5 1
0.0002625025746329817 5 3 5 2
0.010985661846622849 5 3 5 3
-0.000453496495823465 5 4 1 1
0.003605188892221379 5 4 2 1
0.00040168869218335423 5 4 2 2
0.00019183772795426424 5 4 3 1
9.718450240008278e-05 5 4 3 2
0.00033736348995909524 5 4 3 3
-4.796929151610795e-05 5 4 4 1
0.0004490182413599914 5 4 4 2
0.00035484783435346776 5 4 4 3
0.00015563186590427373 5 4 4 4
0.000847365747472197 5 4 5 1
2.2211012524721736e-05 5 4 5 2
0.00016090043771538153 5 4 5 3
0.00766159638169179 5 4 5 4
0.4075163163031868 5 5 1 1
0.003540147579556788 5 5 2 1
0.35498728714070754 5 5 2 2
0.0006534570889358553 5 5 3 1
-0.0002742634019201515 5 5 3 2
0.38997816278677155 5 5 3 3
0.00029445428841758006 5 5 4 1
0.000385701659317107 5 5 4 2
0.00023500009797259707 5 5 4 3
0.4055658772293494 5 5 4 4
0.00039185002044767785 5 5 5 1
0.0001224295482631001 5 5 5 2
0.009505596900625843 5 5 5 3
0.00014561051914413335 5 5 5 4
0.45964300477904746 5 5 5 5
-0.0005457667348612778 6 1 1 1
0.0009009298738317553 6 1 2 1
-0.0002931381633855737 6 1 2 2
0.00016799059154419744 6 1 3 1
0.00012462716496595768 6 1 3 2
-0.0006899533580296222 6 1 3 3
8.106166693610453e-05 6 1 4 1
0.0002613530562502544 6 1 4 2
-0.004041610879051349 6 1 4 3
-0.00014412496065043152 6 1 4 4
0.0006387813091877015 6 1 5 1
-4.8739066364135475e-05 6 1 5 2
-5.660061534991278e-05 6 1 5 3
-0.004205974185811129 6 1 5 4
-0.0010591011331817616 6 1 5 5
0.007578037899707453 6 1 6 1
-0.005020245109231421 6 2 1 1
-0.00020800941920750182 6 2 2 1
-0.002656626525980476 6 2 2 2
-0.00010929829390778881 6 2 3 1
-9.901110673585767e-05 6 2 3 2
-0.0015208277537140317 6 2 3 3
-9.740275097444857e-05 6 2 4 1
-0.000144234421629936 6 2 4 2
-8.612105136913629e-05 6 2 4 3
-0.010057728489559402 6 2 4 4
-0.0002987778923543963 6 2 5 1
-2.0043018532571366e-05 6 2 5 2
-0.0021905935967416077 6 2 5 3
-0.00045199167798556743 6 2 5 4
-0.00617721509074249 6 2 5 5
-2.0685199029745524e-05 6 2 6 1
0.007816762362946494 6 2 6 2
-0.00010593928552543492 6 3 1 1
-6.970270545940732e-06 6 3 2 1
-5.6352023315557796e-05 6 3 2 2
0.0009191351430322723 6 3 3 1
-0.0012726923377026807 6 3 3 2
-0.00013533012961954648 6 3 3 3
-0.0012560398988217553 6 3 4 1
0.0009335689195330858 6 3 4 2
1.4408346936263516e-05 6 3 4 3
-9.966316404359738e-05 6 3 4 4
0.002305281177991377 6 3 5 1
0.003749424244366871 6 3 5 2
6.0484636906900096e-05 6 3 5 3
-0.00013523846480928382 6 3 5 4
-0.00016659334857749544 6 3 5 5
-4.1387150441360557e-05 6 3 6 1
-2.2930522023603204e-08 6 3 6 2
0.008823911809670331 6 3 6 3
0.0014822087199706582 6 4 1 1
-0.000870287019729448 6 4 2 1
0.00037693897947097335 6 4 2 2
-0.0371377893780358 6 4 3 1
-0.006126164254802843 6 4 3 2
0.00039400778885974834 6 4 3 3
0.007807154794611872 6 4 4 1
-0.06951876680990769 6 4 4 2
0.0001182923541283007 6 4 4 3
-0.0007515515604865516 6 4 4 4
-0.13975817014385566 6 4 5 1
-0.00953720890403564 6 4 5 2
-0.0030984717058046883 6 4 5 3
-0.0007438404698088202 6 4 5 4
-0.0003181954018335398 6 4 5 5
-0.0005594052647939496 6 4 6 1
0.000248120880479396 6 4 6 2
-0.0023718148749146536 6 4 6 3
0.13197231365201045 6 4 6 4
0.00017112221352253234 6 5 1 1
-5.023320034501473e-05 6 5 2 1
-4.122400971048879e-05 6 5 2 2
-0.0027157967799779194 6 5 3 1
0.004338054179635362 6 5 3 2
0.00011402425947511307 6 5 3 3
-0.0002508063626179673 6 5 4 1
-0.0045367081989933986 6 5 4 2
-0.00010015691214721764 6 5 4 3
-5.528648179670576e-05 6 5 4 4
-0.009430670817015081 6 5 5 1
-0.0008424401674298917 6 5 5 2
-0.00022062466821988575 6 5 5 3
-7.96061174991055e-05 6 5 5 4
-1.1724040614597927e-05 6 5 5 5
-7.277811954470366e-05 6 5 6 1
-8.08791187969166e-06 6 5 6 2
0.001601697568721223 6 5 6 3
0.008088576698917611 6 5 6 4
0.010679721899628923 6 5 6 5
0.34700774194086065 6 6 1 1
0.0019719132640822314 6 6 2 1
0.31553649574743275 6 6 2 2
-0.00019765756238935553 6 6 3 1
-0.0003310734268047611 6 6 3 2
0.3439369979448476 6 6 3 3
0.0002509018147593032 6 6 4 1
-0.0006328848424848131 6 6 4 2
0.000194920887343861 6 6 4 3
0.358063016030443 6 6 4 4
-0.001509727916922052 6 6 5 1
-5.239243348957913e-05 6 6 5 2
0.004001033456508021 6 6 5 3
0.000475919525554904 6 6 5 4
0.38190611509244426 6 6 5 5
-0.0005011108924720502 6 6 6 1
-0.004343085588126896 6 6 6 2
-0.0001432492152538556 6 6 6 3
0.0013807118951634752 6 6 6 4
8.234135813638619e-05 6 6 6 5
0.34818607331903095 6 6 6 6
0.00023255423725635489 7 1 1 1
-0.0001715936096146093 7 1 2 1
0.0002663422546133103 7 1 2 2
-0.0030341775162213295 7 1 3 1
-0.0009274943949474279 7 1 3 2
6.90860981517617e-05 7 1 3 3
0.001020579367907426 7 1 4 1
-0.005731003750582697 7 1 4 2
1.1250224074533778e-05 7 1 4 3
-1.1590010824801155e-05 7 1 4 4
-0.011586950622444398 7 1 5 1
0.009158061453242662 7 1 5 2
-0.00023752481878094717 7 1 5 3
-0.00013037789740868823 7 1 5 4
1.3754923795537802e-06 7 1 5 5
-0.00012526513043118847 7 1 6 1
6.233554188222031e-05 7 1 6 2
0.004603751131567841 7 1 6 3
0.009251144255131337 7 1 6 4
0.0038581577931519197 7 1 6 5
0.0001650623889330247 7 1 6 6
0.013367363385740481 7 1 7 1
-0.0015967764162495303 7 2 1 1
0.000973405937171078 7 2 2 1
-0.0004918157379985298 7 2 2 2
0.03873862718610041 7 2 3 1
0.005833094277064216 7 2 3 2
-0.0005062444140652382 7 2 3 3
-0.007921149451313397 7 2 4 1
0.07024835137291181 7 2 4 2
-0.00017241391747659107 7 2 4 3
0.0005728970629844084 7 2 4 4
0.13225320690716974 7 2 5 1
0.00932780201855788 7 2 5 2
0.003043862900155793 7 2 5 3
0.0006894385112401342 7 2 5 4
0.00021683240394537696 7 2 5 5
0.000581974467706521 7 2 6 1
-0.0002965659083520564 7 2 6 2
0.0025529385850298096 7 2 6 3
-0.1151746471233942 7 2 6 4
-0.0075183222199266715 7 2 6 5
-0.0013698874922527422 7 2 6 6
-0.010190536693819445 7 2 7 1
0.13454318735719098 7 2 7 2
7.308942726058045e-05 7 3 1 1
0.003376421358471888 7 3 2 1
0.001112647466313431 7 3 2 2
0.0001063959407597923 7 3 3 1
-1.801856169416193e-06 7 3 3 2
0.0006530705909182615 7 3 3 3
-2.7263622338564623e-05 7 3 4 1
0.00017280705358811672 7 3 4 2
0.0010831302978615567 7 3 4 3
0.0009993709053382116 7 3 4 4
0.0002732762869120953 7 3 5 1
0.0001880756155202878 7 3 5 2
0.00010328751185567834 7 3 5 3
0.0010185538722511866 7 3 5 4
0.0007910137287911624 7 3 5 5
-0.0003554555852641567 7 3 6 1
-5.433431341941312e-05 7 3 6 2
2.8615776877096036e-05 7 3 6 3
-0.00021282600645812483 7 3 6 4
6.765033830604671e-05 7 3 6 5
0.000718926948709299 7 3 6 6
4.239900791522177e-05 7 3 7 1
0.0002487672745617103 7 3 7 2
0.008223624067937084 7 3 7 3
0.004915956934000742 7 4 1 1
-0.0008751099976970173 7 4 2 1
0.01216878215632081 7 4 2 2
-7.398259626379016e-05 7 4 3 1
-3.9870498182798396e-05 7 4 3 2
0.004861721436499308 7 4 3 3
2.305171022728215e-06 7 4 4 1
-0.00010620071294845797 7 4 4 2
-0.0002112411789020905 7 4 4 3
0.007018603057576306 7 4 4 4
-0.0002893040946394563 7 4 5 1
-3.6079048245775164e-05 7 4 5 2
0.0028563380201008883 7 4 5 3
-0.00025407833270209073 7 4 5 4
0.005800237193645915 7 4 5 5
0.00042813675936993344 7 4 6 1
-0.0035503914846143837 7 4 6 2
-1.4255398845988818e-05 7 4 6 3
0.0002862512985512416 7 4 6 4
2.5824675614081836e-05 7 4 6 5
-0.001145441924220129 7 4 6 6
5.592394281878066e-05 7 4 7 1
-0.00020536928594352884 7 4 7 2
-0.0002668375237741711 7 4 7 3
0.010198294497157992 7 4 7 4
-0.002563496888561693 7 5 1 1
0.009580169110617483 7 5 2 1
0.0006211198776252179 7 5 2 2
-0.00016584619841406131 7 5 3 1
0.00019574980275882334 7 5 3 2
-0.0011868616775004043 7 5 3 3
9.941809388164758e-05 7 5 4 1
-0.0002502507254787395 7 5 4 2
-0.003477348762705912 7 5 4 3
-0.0008320733018701992 7 5 4 4
-0.0007033813871276961 7 5 5 1
-3.514044379105245e-05 7 5 5 2
-8.619915064782045e-05 7 5 5 3
0.0013995014765650242 7 5 5 4
-0.0013918511204920848 7 5 5 5
0.004094224407889151 7 5 6 1
-0.00024115593620472638 7 5 6 2
3.752853396341648e-05 7 5 6 3
0.0006388680154180116 7 5 6 4
0.00011884719957147806 7 5 6 5
-0.0012888430261495194 7 5 6 6
0.00011827933663018945 7 5 7 1
-0.0006015187275590192 7 5 7 2
0.0023714330623478552 7 5 7 3
-2.616033801224929e-05 7 5 7 4
0.01297227583793791 7 5 7 5
-0.0009004801375282229 7 6 1 1
0.0005649855591227603 7 6 2 1
-0.00032205865660980414 7 6 2 2
0.019897208554467822 7 6 3 1
0.004049416193079511 7 6 3 2
-0.0003482898512375802 7 6 3 3
-0.003418166309349651 7 6 4 1
0.03185915924622836 7 6 4 2
-0.00011417467509242659 7 6 4 3
0.0003292373418447913 7 6 4 4
0.0759682666467494 7 6 5 1
0.004520388720195694 7 6 5 2
0.0017444302909463828 7 6 5 3
0.0004298237445677627 7 6 5 4
2.276359024273056e-06 7 6 5 5
0.00033208529484047384 7 6 6 1
-0.0002392747630017855 7 6 6 2
0.00118581395266351 7 6 6 3
-0.06897000603489543 7 6 6 4
-0.004469349400924658 7 6 6 5
-0.0008337211691585365 7 6 6 6
-0.0060343264179494056 7 6 7 1
0.07049538002914209 7 6 7 2
0.000157185529670784 7 6 7 3
-0.00021451186024920322 7 6 7 4
-0.00033484854346363087 7 6 7 5
0.047270387121214 7 6 7 6
0.3599096245368655 7 7 1 1
0.0010798774312846715 7 7 2 1
0.3433699175103149 7 7 2 2
0.0005064712992539207 7 7 3 1
-6.998101853459941e-05 7 7 3 2
0.36300644405717664 7 7 3 3
0.00012570778757342463 7 7 4 1
0.0007604769909426095 7 7 4 2
0.001225679739959106 7 7 4 3
0.3674585767421256 7 7 4 4
0.0014107371722209244 7 7 5 1
6.656915616599503e-05 7 7 5 2
0.0049215017086619555 7 7 5 3
-2.5952373286610293e-05 7 7 5 4
0.3996996324786247 7 7 5 5
-0.0013711812084156708 7 7 6 1
0.004999720021871279 7 7 6 2
-8.43435193431556e-05 7 7 6 3
-0.0012301100365788241 7 7 6 4
-7.751223253129108e-05 7 7 6 5
0.3486080668539708 7 7 6 6
-1.3016232790926508e-05 7 7 7 1
0.0013328918007710431 7 7 7 2
0.0005015846694794045 7 7 7 3
0.008982695976082346 7 7 7 4
-0.0013726215427191976 7 7 7 5
0.0006394822999735801 7 7 7 6
0.39682337537822077 7 7 7 7
0.0005945640704569622 8 1 1 1
-0.00044562908029867896 8 1 2 1
5.3218847803699746e-05 8 1 2 2
-0.020559066406195346 8 1 3 1
-0.0022900579247387464 8 1 3 2
6.0847222852481574e-05 8 1 3 3
0.003780385497824999 8 1 4 1
-0.029862438544458983 8 1 4 2
7.581338931334326e-05 8 1 4 3
-0.0005478057362371504 8 1 4 4
-0.06620333746499707 8 1 5 1
-0.0048504383584634814 8 1 5 2
-0.0015047322140639952 8 1 5 3
-0.00020941305035890285 8 1 5 4
-0.0004368380999316925 8 1 5 5
-0.00027086298226781523 8 1 6 1
0.0001666369511700647 8 1 6 2
-0.0013090693704226497 8 1 6 3
0.05422398183455621 8 1 6 4
0.003495643034268973 8 1 6 5
0.0003704346471743297 8 1 6 6
0.004808122660004313 8 1 7 1
-0.05644172632729031 8 1 7 2
-6.95016889040208e-05 8 1 7 3
0.00013210257724856318 8 1 7 4
0.0004056609334227359 8 1 7 5
-0.03212967588769308 8 1 7 6
-0.0006946464321736425 8 1 7 7
0.03682253619313768 8 1 8 1
-0.0002818652269929074 8 2 1 1
-0.00010462348283824515 8 2 2 1
-0.0003251941863566738 8 2 2 2
-0.003881882010977157 8 2 3 1
0.0047971068621970045 8 2 3 2
-0.00022025377873146455 8 2 3 3
0.0019087312607036578 8 2 4 1
-0.005473562582751178 8 2 4 2
2.865746909563399e-05 8 2 4 3
-0.00030850820297705127 8 2 4 4
-0.010805104005805866 8 2 5 1
-0.004383718876704754 8 2 5 2
-0.0003502811036890874 8 2 5 3
-3.7489138149713735e-05 8 2 5 4
-0.0004101061735995756 8 2 5 5
-5.532626120066082e-06 8 2 6 1
2.9167734072750743e-05 8 2 6 2
-0.0015690233685912926 8 2 6 3
0.009129662257531692 8 2 6 4
0.0019503534211461188 8 2 6 5
-0.0001763852630853046 8 2 6 6
-0.004448486709731875 8 2 7 1
-0.010790192898628195 8 2 7 2
-4.965840346121645e-05 8 2 7 3
5.6512837121687254e-05 8 2 7 4
3.8136090170684195e-05 8 2 7 5
-0.005609532318507758 8 2 7 6
-0.00022020085845609973 8 2 7 7
0.005495413857013039 8 2 8 1
0.008955534743605772 8 2 8 2
0.007912377952387249 8 3 1 1
-0.00026806496500601546 8 3 2 1
0.004715574998023772 8 3 2 2
-1.3209480481526695e-05 8 3 3 1
0.00010259617767078438 8 3 3 2
0.0076688959867450375 8 3 3 3
0.00012243039596713991 8 3 4 1
6.431066618273791e-06 8 3 4 2
-2.2648625709210855e-05 8 3 4 3
0.0059509732731598255 8 3 4 4
-7.363151106804e-05 8 3 5 1
-4.754473125972824e-05 8 3 5 2
0.0016479791208986352 8 3 5 3
1.2315283914965819e-05 8 3 5 4
0.007203718824352173 8 3 5 5
-0.00021118703851006454 8 3 6 1
-0.0020249979833552832 8 3 6 2
-3.252637873957836e-05 8 3 6 3
-4.42946367989384e-05 8 3 6 4
2.985800523800422e-05 8 3 6 5
0.007094286971880405 8 3 6 6
-6.023776178024911e-05 8 3 7 1
5.935268152058975e-05 8 3 7 2
-3.9671435057245424e-05 8 3 7 3
-0.00022566454296603494 8 3 7 4
-0.0004964315388634932 8 3 7 5
8.689692514362966e-05 8 3 7 6
-0.0011609043664492626 8 3 7 7
-2.855906970021762e-05 8 3 8 1
2.0561949973003163e-05 8 3 8 2
0.009710214401316438 8 3 8 3
0.00021889942141577258 8 4 1 1
-0.0046203585687666455 8 4 2 1
-0.002010837279666021 8 4 2 2
0.0005473758688067007 8 4 3 1
1.360033223879235e-05 8 4 3 2
-0.0012294695933913772 8 4 3 3
-0.0001304721158125228 8 4 4 1
0.0009582347408347412 8 4 4 2
-0.0011653156668706105 8 4 4 3
-0.0010645166875748967 8 4 4 4
0.001785889784003452 8 4 5 1
9.740517455643356e-05 8 4 5 2
-0.0003588814979812275 8 4 5 3
-0.0020645411851617237 8 4 5 4
-0.000555513780623 8 4 5 5
0.0031354772623133644 8 4 6 1
0.0003277138566736037 8 4 6 2
3.169201533008113e-05 8 4 6 3
-0.0016899231869053864 8 4 6 4
-0.0001531971094248011 8 4 6 5
7.3034543847476e-05 8 4 6 6
-0.00012607134734018426 8 4 7 1
0.0018049969836880445 8 4 7 2
-0.0034421825875478283 8 4 7 3
-9.146659278903767e-05 8 4 7 4
-0.0034627939029654967 8 4 7 5
0.0008173207655732635 8 4 7 6
-0.001518712448307568 8 4 7 7
-0.0008197184359995467 8 4 8 1
-0.000182761128923988 8 4 8 2
0.000312289194647727 8 4 8 3
0.010666650305044845 8 4 8 4
-0.014639401646162073 8 5 1 1
-0.0014289957532330388 8 5 2 1
-0.003289109523053898 8 5 2 2
-0.00011633781186554278 8 5 3 1
1.6858000094612513e-06 8 5 3 2
-0.011877429545681616 8 5 3 3
0.00011024697407971825 8 5 4 1
-0.00021384364095538094 8 5 4 2
0.00028404247693265003 8 5 4 3
-0.005811423354170092 8 5 4 4
-0.0004493961579605268 8 5 5 1
-2.915107177189104e-05 8 5 5 2
-0.0012716963441165917 8 5 5 3
-0.0003461152041694166 8 5 5 4
-0.00992556992173955 8 5 5 5
-3.627407991767434e-05 8 5 6 1
-0.0007983320455489865 8 5 6 2
2.3922479160859403e-05 8 5 6 3
0.0004277702629359771 8 5 6 4
-3.418968202610873e-06 8 5 6 5
-0.00614126849200156 8 5 6 6
0.00020071412898040378 8 5 7 1
-0.00038062470921367816 8 5 7 2
-0.00010517444440571063 8 5 7 3
0.0018823673596955724 8 5 7 4
-2.9817512782808847e-06 8 5 7 5
-0.0002582272467613983 8 5 7 6
-0.006021446689057103 8 5 7 7
7.475674753653876e-05 8 5 8 1
3.2649159471784856e-05 8 5 8 2
-0.001021642539869505 8 5 8 3
0.00015988315217377484 8 5 8 4
0.011713015852917076 8 5 8 5
8.543826167682361e-06 8 6 1 1
-0.0001369531943166509 8 6 2 1
-0.00019552527016853565 8 6 2 2
-0.002944972372767639 8 6 3 1
0.008445548889558285 8 6 3 2
4.9671824244734544e-05 8 6 3 3
0.008550767295059368 8 6 4 1
-0.0037513354914480465 8 6 4 2
8.665996881559686e-06 8 6 4 3
-0.00031737440947910046 8 6 4 4
-0.00893244331267705 8 6 5 1
0.00047731743520698145 8 6 5 2
-0.00026267488970307956 8 6 5 3
-5.763202702541951e-05 8 6 5 4
-0.00012853489143197297 8 6 5 5
4.767891474900437e-05 8 6 6 1
-3.64642972855577e-05 8 6 6 2
-2.902763670828349e-05 8 6 6 3
0.007784796528151333 8 6 6 4
0.002650223138319935 8 6 6 5
-1.7358927748627378e-05 8 6 6 6
0.00039313801104661367 8 6 7 1
-0.008188693269073066 8 6 7 2
-3.582522044053055e-05 8 6 7 3
-7.257908605037333e-05 8 6 7 4
9.01766322661938e-05 8 6 7 5
-0.0042046104533600545 8 6 7 6
-9.909401730148016e-05 8 6 7 7
0.004069328933425086 8 6 8 1
0.002893553339835853 8 6 8 2
6.939763173426828e-05 8 6 8 3
-4.485158349215522e-05 8 6 8 4
3.9539655497347843e-05 8 6 8 5
0.013451704990085148 8 6 8 6
-0.0007432541155328472 8 7 1 1
-0.002450788033100386 8 7 2 1
-0.0014419593650235054 8 7 2 2
0.0006151596629817811 8 7 3 1
0.000101086179106057 8 7 3 2
-0.0009118740181513432 8 7 3 3
-0.00013177849532766022 8 7 4 1
0.0011002768835139186 8 7 4 2
0.0029703304820138405 8 7 4 3
-0.0008281908011429811 8 7 4 4
0.0020960214459638223 8 7 5 1
0.00013085225241161978 8 7 5 2
0.0004750060078824634 8 7 5 3
0.0002691816838543634 8 7 5 4
-0.0014167839876612438 8 7 5 5
-0.0030635310927165033 8 7 6 1
-0.0007384096324800326 8 7 6 2
1.0271295504236561e-05 8 7 6 3
-0.0017755552452028795 8 7 6 4
-0.0001270727277523086 8 7 6 5
-0.0012725091558972506 8 7 6 6
-0.00023166277913340668 8 7 7 1
0.0019803470207219536 8 7 7 2
0.0012177851265726886 8 7 7 3
-2.257219290299051e-05 8 7 7 4
-0.0018117906217871244 8 7 7 5
0.0011226107516657422 8 7 7 6
-0.0011635563837664956 8 7 7 7
-0.0009365791610384896 8 7 8 1
-0.00018606422011607817 8 7 8 2
0.0004001710017476468 8 7 8 3
-0.0014806198015379333 8 7 8 4
7.954046888557273e-05 8 7 8 5
-0.00017405974536860978 8 7 8 6
0.008278691615222917 8 7 8 7
0.3510130232925729 8 8 1 1
0.0019405068558227174 8 8 2 1
0.32412343820872064 8 8 2 2
-0.00041665641159089554 8 8 3 1
-0.0001495070164719477 8 8 3 2
0.35153989860364065 8 8 3 3
0.00031553994010171754 8 8 4 1
-0.0008745025859395604 8 8 4 2
7.433660051874629e-06 8 8 4 3
0.3525015880261469 8 8 4 4
-0.0016975679929096298 8 8 5 1
-0.0001200323668153826 8 8 5 2
0.009825168434806889 8 8 5 3
-3.0177810825431718e-05 8 8 5 4
0.3811248740349703 8 8 5 5
-1.8372644042627395e-05 8 8 6 1
-0.0022269004101535465 8 8 6 2
-0.00014693934919681563 8 8 6 3
0.0014962896761940131 8 8 6 4
0.0001505921357201728 8 8 6 5
0.3324607598313027 8 8 6 6
0.0001332196367456791 8 8 7 1
-0.00171283537339725 8 8 7 2
-5.780843341542571e-06 8 8 7 3
0.010504730371996507 8 8 7 4
-0.001127432940740396 8 8 7 5
-0.0009504224428298234 8 8 7 6
0.36100176270378037 8 8 7 7
0.000654078974535028 8 8 8 1
-0.00013635793604072544 8 8 8 2
0.0038534607405192162 8 8 8 3
-0.001032249170474745 8 8 8 4
-0.007954811349283114 8 8 8 5
7.857286143740076e-05 8 8 8 6
-0.0012213458953774978 8 8 8 7
0.35997687238352605 8 8 8 8
0.020748158090281542 9 1 1 1
0.0003342689205985758 9 1 2 1
0.015817391356480717 9 1 2 2
0.00019689666901213834 9 1 3 1
-9.435825390892697e-05 9 1 3 2
0.013971168891207615 9 1 3 3
6.462875594514886e-07 9 1 4 1
0.00021023473573221325 9 1 4 2
-1.586610210050074e-05 9 1 4 3
0.02460445317453216 9 1 4 4
0.0003243825386470496 9 1 5 1
-5.3962639551046626e-05 9 1 5 2
-0.0015670798699695461 9 1 5 3
-0.00048749127015898947 9 1 5 4
0.033341599530001154 9 1 5 5
9.779223025027944e-05 9 1 6 1
-0.0022314941110738178 9 1 6 2
-3.094976613278337e-05 9 1 6 3
-0.00031572409144814607 9 1 6 4
-3.735126491960776e-05 9 1 6 5
0.022241486047312266 9 1 6 6
-5.683045203329057e-05 9 1 7 1
0.00038920980619055903 9 1 7 2
0.0005714124549885277 9 1 7 3
-0.0006462130665155398 9 1 7 4
0.00043272996784181686 9 1 7 5
0.000216032348442498 9 1 7 6
0.01772950991961614 9 1 7 7
-0.0002858741042928108 9 1 8 1
1.2209283530996563e-05 9 1 8 2
0.003105737129765773 9 1 8 3
9.121282200826593e-05 9 1 8 4
0.0052952826134538555 9 1 8 5
-6.793935345808011e-05 9 1 8 6
-0.0007002779250053361 9 1 8 7
0.010548205804972672 9 1 8 8
0.013963923514862139 9 1 9 1
0.002062617881846281 9 2 1 1
0.0005464694068064612 9 2 2 1
0.0017696344759075072 9 2 2 2
-0.0006976311878568364 9 2 3 1
-0.00010132992618481746 9 2 3 2
0.0015329491284632932 9 2 3 3
0.00013122888252011924 9 2 4 1
-0.0012240325270765795 9 2 4 2
-0.0014992364657325785 9 2 4 3
0.0021472262442833105 9 2 4 4
-0.002205228262204257 9 2 5 1
-0.00019118469094776055 9 2 5 2
-3.3470256405918466e-05 9 2 5 3
0.0012308922985215583 9 2 5 4
0.0031144547771213586 9 2 5 5
0.0003422719960014324 9 2 6 1
-0.00010720983228210334 9 2 6 2
-4.118507409301788e-05 9 2 6 3
0.0019555309154775 9 2 6 4
0.00012145272406813896 9 2 6 5
0.00206547451907639 9 2 6 6
0.00016062740789938516 9 2 7 1
-0.0021117242470377814 9 2 7 2
-0.0014793740916022645 9 2 7 3
6.078023774869691e-05 9 2 7 4
0.0028227157554050813 9 2 7 5
-0.0010465351836814643 9 2 7 6
0.00281786767025757 9 2 7 7
0.0009431196249164109 9 2 8 1
0.00015522626060306298 9 2 8 2
0.00023385609898627144 9 2 8 3
0.002174748268048254 9 2 8 4
0.00017766641294202705 9 2 8 5
0.00010089614348341534 9 2 8 6
0.003164781638828127 9 2 8 7
0.0012520418599779397 9 2 8 8
0.0006252423580251784 9 2 9 1
0.005157872890798637 9 2 9 2
0.0008453478182695011 9 3 1 1
-0.0004284233096967675 9 3 2 1
0.0003794197705401195 9 3 2 2
-0.01375213221568378 9 3 3 1
-0.0024289915797587403 9 3 3 2
0.0004483978566027636 9 3 3 3
0.002749919655496452 9 3 4 1
-0.024310661575075717 9 3 4 2
6.599132325318927e-05 9 3 4 3
5.0844924216947646e-05 9 3 4 4
-0.05069331553129205 9 3 5 1
-0.0032279123425971645 9 3 5 2
-0.0012795659418016296 9 3 5 3
-0.00030116079977585565 9 3 5 4
0.00045485408224340916 9 3 5 5
-0.00019990351902651892 9 3 6 1
0.00011682477671723273 9 3 6 2
-0.0011378421915477302 9 3 6 3
0.046466125796058674 9 3 6 4
0.0029840858005150146 9 3 6 5
0.0008140438717759591 9 3 6 6
0.004163428869212988 9 3 7 1
-0.051756428378834235 9 3 7 2
-0.00014628518851479615 9 3 7 3
0.00011836618057456261 9 3 7 4
0.0002610968634572041 9 3 7 5
-0.03117277349001996 9 3 7 6
-0.0003123121947019846 9 3 7 7
0.024583233184834335 9 3 8 1
0.004519572332497278 9 3 8 2
-8.005844582846933e-05 9 3 8 3
-0.000619344954639883 9 3 8 4
0.0003114330757589918 9 3 8 5
0.0035455057776842343 9 3 8 6
-0.0008460790583433653 9 3 8 7
0.0008475470444575305 9 3 8 8
-6.96408655310705e-05 9 3 9 1
0.0007961406265296015 9 3 9 2
0.031478618786793956 9 3 9 3
0.0001898456838192066 9 4 1 1
-4.553996059323149e-05 9 4 2 1
0.0001992427808061005 9 4 2 2
-0.002143595806575481 9 4 3 1
-0.004408916134722921 9 4 3 2
0.00018081912362105768 9 4 3 3
-0.0017767286530290327 9 4 4 1
-0.004576066545766905 9 4 4 2
-2.607574352818532e-05 9 4 4 3
0.00018698650835909333 9 4 4 4
-0.008422867949866715 9 4 5 1
-0.0006709338465590845 9 4 5 2
-0.0002203034048446331 9 4 5 3
-6.98685062099147e-05 9 4 5 4
0.0001540873842365199 9 4 5 5
-5.0072438991202904e-05 9 4 6 1
0.0001669235852557612 9 4 6 2
0.0020821006743477325 9 4 6 3
0.007820002836520542 9 4 6 4
-0.0012079064854318092 9 4 6 5
0.00019616479663077795 9 4 6 6
-0.0002835271750498118 9 4 7 1
-0.0075315525838659525 9 4 7 2
-5.945072601401233e-05 9 4 7 3
6.0197780826382765e-05 9 4 7 4
-2.848646374711457e-05 9 4 7 5
-0.0048714300588140825 9 4 7 6
0.0002463029586629054 9 4 7 7
0.0030123897113137387 9 4 8 1
0.0027592694440258425 9 4 8 2
-0.0001127353322419008 9 4 8 3
-7.033103305261742e-05 9 4 8 4
7.483753467974972e-05 9 4 8 5
-0.007172631125724513 9 4 8 6
-0.00015522347218466755 9 4 8 7
0.0004079734798134971 9 4 8 8
-2.862132047653877e-05 9 4 9 1
0.00018317315511670297 9 4 9 2
0.003158185773969694 9 4 9 3
0.010736399520424211 9 4 9 4
-0.0009831316350314263 9 5 1 1
0.000515346100961836 9 5 2 1
-0.00028990820123743 9 5 2 2
0.021513571452127206 9 5 3 1
0.0035101207413219225 9 5 3 2
-0.00047648584055694893 9 5 3 3
-0.005977129002237108 9 5 4 1
0.04670376000430826 9 5 4 2
-6.24645954118109e-05 9 5 4 3
0.0004634461171294644 9 5 4 4
0.0951277172393508 9 5 5 1
0.006446060349625983 9 5 5 2
0.0021227161513471975 9 5 5 3
0.0005450564657588885 9 5 5 4
0.00016167625524423984 9 5 5 5
0.0003478163499977762 9 5 6 1
-0.0002171123154457221 9 5 6 2
0.0017587617272139908 9 5 6 3
-0.08290804847629465 9 5 6 4
-0.005481915930593237 9 5 6 5
-0.0009595363890908364 9 5 6 6
-0.0056567272884057345 9 5 7 1
0.08082984922664492 9 5 7 2
0.00020144118431386879 9 5 7 3
-0.00011261857599020479 9 5 7 4
-0.0004257268658172695 9 5 7 5
0.045242212264107635 9 5 7 6
0.0007605455282930544 9 5 7 7
-0.028390455234018303 9 5 8 1
-0.005992094550400638 9 5 8 2
0.0001805343848087959 9 5 8 3
0.0011321140952591767 9 5 8 4
-0.00028705389297513975 9 5 8 5
-0.005950991839143433 9 5 8 6
0.001227137212666403 9 5 8 7
-0.0011352911830227927 9 5 8 8
0.0003541330793263023 9 5 9 1
-0.0013716939399823192 9 5 9 2
-0.03269610940560203 9 5 9 3
-0.005181120653159663 9 5 9 4
0.06895669858693053 9 5 9 5
-0.0011330686703893943 9 6 1 1
0.0018892495252596138 9 6 2 1
-0.00039239246646727315 9 6 2 2
0.00015590592327021437 9 6 3 1
6.667264869480683e-05 9 6 3 2
-0.00041635440961950977 9 6 3 3
-4.8659811442841084e-05 9 6 4 1
0.000354872365218607 9 6 4 2
0.0037486020510557956 9 6 4 3
-0.00019349027901555927 9 6 4 4
0.0006229413810234015 9 6 5 1
6.759970543992853e-05 9 6 5 2
0.00021749100972295047 9 6 5 3
-0.0010709460771652366 9 6 5 4
-0.001371241902394878 9 6 5 5
-0.0014230320234906284 9 6 6 1
-7.580514577101784e-05 9 6 6 2
1.1461052870748296e-05 9 6 6 3
-0.0005024607660936218 9 6 6 4
-3.581737125042848e-05 9 6 6 5
-0.000711047770257475 9 6 6 6
-5.193523742387033e-05 9 6 7 1
0.00034397566813419787 9 6 7 2
0.002122512908225028 9 6 7 3
-0.0009357830978141249 9 6 7 4
0.0024080487159560465 9 6 7 5
0.0002797844947662575 9 6 7 6
-0.00018701432316167463 9 6 7 7
-0.0001709131451840027 9 6 8 1
-2.11189213497015e-05 9 6 8 2
0.00012735152455012734 9 6 8 3
-0.007323477497863818 9 6 8 4
-0.000607991337867224 9 6 8 5
-8.766078583130487e-05 9 6 8 6
0.004434029287374884 9 6 8 7
-0.0017486478839895557 9 6 8 8
-0.00018693362150739893 9 6 9 1
-0.000267564124141721 9 6 9 2
-0.00021078246802542415 9 6 9 3
-0.00013627714533128222 9 6 9 4
0.00035126933385689203 9 6 9 5
0.008842680769898614 9 6 9 6
-0.00037535529070644656 9 7 1 1
9.559259554812644e-05 9 7 2 1
-0.0003981788382854076 9 7 2 2
0.004136791034179681 9 7 3 1
0.0006463389115562626 9 7 3 2
-0.00024216405080858256 9 7 3 3
0.0005747279886946752 9 7 4 1
0.006952243787160607 9 7 4 2
2.007740824301304e-05 9 7 4 3
-0.00023647072286154934 9 7 4 4
0.01328494297000291 9 7 5 1
0.004569809147827465 9 7 5 2
0.0003082348710845813 9 7 5 3
6.932119868313697e-05 9 7 5 4
-0.0002817579537603428 9 7 5 5
4.902326944755278e-05 9 7 6 1
-5.143300434194403e-05 9 7 6 2
-0.00023649037306800155 9 7 6 3
-0.012192467711474766 9 7 6 4
0.0006446835954949644 9 7 6 5
-0.00035007403715572015 9 7 6 6
0.0005258973127084034 9 7 7 1
0.01334659030537897 9 7 7 2
3.9719917268935914e-05 9 7 7 3
-5.8424603763213465e-05 9 7 7 4
-2.0821448476957397e-05 9 7 7 5
0.0072414347422658796 9 7 7 6
-0.00013508670498729413 9 7 7 7
-0.006040407859945269 9 7 8 1
0.0021730248501122683 9 7 8 2
-1.2118967799800422e-06 9 7 8 3
0.0001555407606595257 9 7 8 4
-2.6319151741293294e-05 9 7 8 5
0.003407670571038089 9 7 8 6
0.0002540778942090957 9 7 8 7
-0.0002906334343368426 9 7 8 8
-1.574316545931501e-05 9 7 9 1
-0.00017754054768679057 9 7 9 2
-0.005338256373026752 9 7 9 3
-0.002561008204331073 9 7 9 4
0.008385250453901595 9 7 9 5
9.981056492128864e-05 9 7 9 6
0.009074911458329536 9 7 9 7
-0.002001208961075938 9 8 1 1
0.0010900040355155338 9 8 2 1
-0.0007531636129390288 9 8 2 2
0.042803032997390654 9 8 3 1
0.005933742747486677 9 8 3 2
-0.0007366298458445985 9 8 3 3
-0.008201026298715152 9 8 4 1
0.07312033912192538 9 8 4 2
-0.00012719212209069239 9 8 4 3
0.00022787520949387325 9 8 4 4
0.13614741509024664 9 8 5 1
0.008969266389049019 9 8 5 2
0.0031776183398855777 9 8 5 3
0.0007863089600646773 9 8 5 4
-0.0001315626146063971 9 8 5 5
0.0005368822541889648 9 8 6 1
-0.0002697389886757652 9 8 6 2
0.0022458501685460545 9 8 6 3
-0.12050383111886111 9 8 6 4
-0.008126850728022297 9 8 6 5
-0.0017187350516525062 9 8 6 6
-0.01095939766992147 9 8 7 1
0.13043855890837358 9 8 7 2
0.0003002735552093814 9 8 7 3
-0.00023334243998052997 9 8 7 4
-0.0005029930299622851 9 8 7 5
0.06847680298923252 9 8 7 6
0.0009263222032933501 9 8 7 7
-0.059989251999972605 9 8 8 1
-0.010884988401107442 9 8 8 2
6.848606887044291e-05 9 8 8 3
0.0018126244857768106 9 8 8 4
-0.0004585224604290866 9 8 8 5
-0.008659340785885853 9 8 8 6
0.0020950348867208642 9 8 8 7
-0.002198290736723962 9 8 8 8
0.00027534945185372965 9 8 9 1
-0.0022671169249445745 9 8 9 2
-0.05264923766009446 9 8 9 3
-0.008107588706637598 9 8 9 4
0.08484232931242228 9 8 9 5
0.0005011749240718903 9 8 9 6
0.013661901543757961 9 8 9 7