 &FCI NORB=20,NELEC=30,MS2=0,   
   ORBSYM=1,1,1,1,1,1,1,1,1,1,1,1,1,1,1,1,1,1,1,1,
   ISYM=1,
  &END
 0.1879801268389513 1 1 1 1
-8.105728413079077e-05 2 1 1 1
0.05190665746495118 2 1 2 1
0.1891647940717364 2 2 1 1
-0.0007355050048998054 2 2 2 1
0.2162224207859409 2 2 2 2
-0.0001613979495646493 3 1 1 1
-0.005349827020493962 3 1 2 1
-0.0003971153636727064 3 1 2 2
0.0056120747223643 3 1 3 1
0.0029548806590229027 3 2 1 1
-0.001286374691015208 3 2 2 1
0.004851902043607839 3 2 2 2
0.000156329090159069 3 2 3 1
0.005104727598911913 3 2 3 2
0.18418553937355847 3 3 1 1
-0.0019440465197385981 3 3 2 1
0.19629711232323915 3 3 2 2
0.0005163419542073948 3 3 3 1
0.0069990308095557435 3 3 3 2
0.20978577309568258 3 3 3 3
-0.004117518320226909 4 1 1 1
-0.0001819535801330406 4 1 2 1
-0.006941953876975422 4 1 2 2
-1.664804824746478e-05 4 1 3 1
0.0015352507106896095 4 1 3 2
-0.007993616227919748 4 1 3 3
0.006824293167541609 4 1 4 1
-0.00020593139250825525 4 2 1 1
0.009854592046321282 4 2 2 1
-0.0004821311129963731 4 2 2 2
0.0015138877889685205 4 2 3 1
-0.00027605275503290457 4 2 3 2
-0.0006410276393360664 4 2 3 3
0.00015921695260914776 4 2 4 1
0.005619981352309386 4 2 4 2
0.0005726380003729609 4 3 1 1
0.04379593389275051 4 3 2 1
-0.0003863563041779281 4 3 2 2
-0.004519451019280062 4 3 3 1
-0.0007909489909998037 4 3 3 2
-0.0030356229583617337 4 3 3 3
-0.0001915821225933415 4 3 4 1
0.009698707712585816 4 3 4 2
0.06466527360448587 4 3 4 3
0.1817721072269964 4 4 1 1
0.0018784406742856068 4 4 2 1
0.18422119819513547 4 4 2 2
-0.00017027013765882816 4 4 3 1
0.005651180038973937 4 4 3 2
0.1940909404227634 4 4 3 3
-0.0035838831699750075 4 4 4 1
0.00033799835780699936 4 4 4 2
0.0032428489547632606 4 4 4 3
0.19343196610573019 4 4 4 4
0.0003434030805346065 5 1 1 1
0.01097525475044013 5 1 2 1
0.00013484418502138391 5 1 2 2
-0.0009790055942906124 5 1 3 1
-0.00016998416679780027 5 1 3 2
-0.00034657524772364065 5 1 3 3
-4.269931820831895e-05 5 1 4 1
0.0027117766565462687 5 1 4 2
0.012056446539322033 5 1 4 3
0.0008399922199000084 5 1 4 4
0.004456582820113923 5 1 5 1
0.0032989670313435466 5 2 1 1
0.00031885842906615206 5 2 2 1
-0.003186012133270537 5 2 2 2
-0.00022524531625898298 5 2 3 1
7.508210729779537e-05 5 2 3 2
-0.0030405165713317407 5 2 3 3
0.0020463104512732123 5 2 4 1
4.00047942254916e-05 5 2 4 2
0.00024093101141070834 5 2 4 3
0.002002683334992921 5 2 4 4
4.475248730590787e-05 5 2 5 1
0.008351834904573337 5 2 5 2
0.014927603693583915 5 3 1 1
-0.0004486070636482589 5 3 2 1
0.014096812431507661 5 3 2 2
6.863394198036087e-05 5 3 3 1
0.0041658507004105946 5 3 3 2
0.020620923343185174 5 3 3 3
-0.001815295291333022 5 3 4 1
-0.0001326895739185976 5 3 4 2
-0.0006468624853569679 5 3 4 3
0.018365308381213457 5 3 4 4
9.837280246774883e-05 5 3 5 1
0.0031232698150850157 5 3 5 2
0.017186008196077084 5 3 5 3
0.00037333897522690967 5 4 1 1
0.012226867223150733 5 4 2 1
1.5235213643178885e-05 5 4 2 2
0.0006858798526420888 5 4 3 1
-7.430627588072216e-05 5 4 3 2
-0.0007030330626799424 5 4 3 3
-6.295251171032939e-05 5 4 4 1
0.003143367442749847 5 4 4 2
0.019120888264773952 5 4 4 3
0.001178995008447617 5 4 4 4
0.0027187163424748943 5 4 5 1
0.0001508998073145076 5 4 5 2
-4.191599604048264e-05 5 4 5 3
0.009035861841862352 5 4 5 4
0.17124387236416794 5 5 1 1
-0.0009077356715687301 5 5 2 1
0.2058036596220452 5 5 2 2
0.0007201999397810786 5 5 3 1
0.0055728776615231075 5 5 3 2
0.2070991404143454 5 5 3 3
-0.010404172658511353 5 5 4 1
-0.0003106565867346449 5 5 4 2
-0.00014697824005634273 5 5 4 3
0.17603972510688348 5 5 4 4
-3.85869370495423e-05 5 5 5 1
-0.020009909436161037 5 5 5 2
0.004730742150674982 5 5 5 3
-0.0001280849461796831 5 5 5 4
0.2786434236167011 5 5 5 5
0.0122311454086472 6 1 1 1
-0.00015212795118319528 6 1 2 1
0.016793993937281714 6 1 2 2
0.00023766883726693652 6 1 3 1
0.0037738118763693514 6 1 3 2
0.02079561837472275 6 1 3 3
-0.004036296410801681 6 1 4 1
-0.00010611788629719919 6 1 4 2
-0.00014449936807923173 6 1 4 3
0.013928833813536443 6 1 4 4
7.494556068936689e-05 6 1 5 1
-0.0015822649795545725 6 1 5 2
0.009673115511481393 6 1 5 3
8.539589021271977e-05 6 1 5 4
0.019077812915165436 6 1 5 5
0.011973142794771505 6 1 6 1
0.0002664478250323872 6 2 1 1
0.005923046244131111 6 2 2 1
7.009805233076268e-05 6 2 2 2
0.002568144313005712 6 2 3 1
0.00016434949147634602 6 2 3 2
-0.0006279040511991713 6 2 3 3
-0.0001518039895485595 6 2 4 1
0.0009031431546628345 6 2 4 2
0.012987614558074206 6 2 4 3
0.0006299811233282967 6 2 4 4
0.0007558562126803791 6 2 5 1
4.3905780631220466e-05 6 2 5 2
-0.00027930432188884015 6 2 5 3
0.007979266024559594 6 2 5 4
0.0004364606780805725 6 2 5 5
-7.826337878360964e-05 6 2 6 1
0.017539838059966586 6 2 6 2
0.00023164542661807582 6 3 1 1
0.012033424805167116 6 3 2 1
-3.9121275908767764e-05 6 3 2 2
0.0013916549662220368 6 3 3 1
-0.00011736425215614425 6 3 3 2
-0.001042542438901285 6 3 3 3
-0.00011126855831260015 6 3 4 1
0.0024770197104258805 6 3 4 2
0.01849989889203944 6 3 4 3
0.0007806336658145598 6 3 4 4
0.00349918203299932 6 3 5 1
0.00010617917925270015 6 3 5 2
-0.0002881786179596331 6 3 5 3
0.007781448481394303 6 3 5 4
-7.24428025710579e-05 6 3 5 5
-4.166771556756853e-05 6 3 6 1
0.011202254277336437 6 3 6 2
0.01375302486657442 6 3 6 3
-0.0015790194330882292 6 4 1 1
-0.0001908363604667338 6 4 2 1
-0.0009682893597228798 6 4 2 2
-5.692382546309947e-06 6 4 3 1
0.00034930947402080835 6 4 3 2
0.0005940560388980051 6 4 3 3
0.00045341457628969583 6 4 4 1
-2.1877639323287982e-05 6 4 4 2
-0.00022533001533980737 6 4 4 3
-0.0010058176819054338 6 4 4 4
-3.7232539195691465e-05 6 4 5 1
2.082649665248444e-05 6 4 5 2
-0.0008729848048175406 6 4 5 3
-0.0001460601206023277 6 4 5 4
0.000959058960267401 6 4 5 5
-0.0009623150571926313 6 4 6 1
-0.00013827218815357765 6 4 6 2
-0.00012368695692625739 6 4 6 3
0.0019327902632854943 6 4 6 4
-3.839757937186788e-05 6 5 1 1
-0.003432987630549505 6 5 2 1
2.445673549163473e-06 6 5 2 2
0.0017089478528858721 6 5 3 1
5.524830885178137e-05 6 5 3 2
0.00027501013226260225 6 5 3 3
1.1663023122519551e-06 6 5 4 1
-0.0003333834158425735 6 5 4 2
-0.0044973595359581835 6 5 4 3
-0.00026475455862162256 6 5 4 4
-0.0014129008457278288 6 5 5 1
-5.509207076473811e-06 6 5 5 2
5.5017134534577453e-05 6 5 5 3
-0.0007780268337041948 6 5 5 4
3.48047374189078e-05 6 5 5 5
6.997103160620512e-05 6 5 6 1
-0.0008520834966216749 6 5 6 2
-0.0009938834728015964 6 5 6 3
-4.474305336662328e-06 6 5 6 4
0.00627108071710527 6 5 6 5
0.18393831485285655 6 6 1 1
-0.0010807273253163373 6 6 2 1
0.21695749531411646 6 6 2 2
0.0007128806407308644 6 6 3 1
0.008706526865574618 6 6 3 2
0.21860058268050306 6 6 3 3
-0.012647924183996054 6 6 4 1
-0.0004224806203843712 6 6 4 2
-0.00030796550505744497 6 6 4 3
0.18734888241579703 6 6 4 4
0.00016013709590023727 6 6 5 1
-0.015316744231805414 6 6 5 2
0.014497290866301025 6 6 5 3
-5.17219009120622e-05 6 6 5 4
0.2565720183908702 6 6 5 5
0.0273334679161775 6 6 6 1
0.0004083356147971816 6 6 6 2
-0.00020566022458008725 6 6 6 3
0.00045851945986034474 6 6 6 4
0.0001285456179054953 6 6 6 5
0.28412315419962986 6 6 6 6
-0.0005419510034240014 7 1 1 1
0.0004301726385261722 7 1 2 1
-0.00196431911647174 7 1 2 2
8.983021789333858e-06 7 1 3 1
-0.0003003115057609763 7 1 3 2
-0.0006883742324169692 7 1 3 3
0.00010766375734183555 7 1 4 1
0.00011035058088717281 7 1 4 2
0.0004511807527252807 7 1 4 3
-0.0003640492859374625 7 1 4 4
0.00012115352907687065 7 1 5 1
0.00022310741374515918 7 1 5 2
-0.00015390682320954742 7 1 5 3
0.00010439464692192302 7 1 5 4
-0.00149081529005906 7 1 5 5
-0.00028929285231303967 7 1 6 1
9.244725607315201e-05 7 1 6 2
9.375709347222738e-05 7 1 6 3
-2.1426461095693665e-05 7 1 6 4
-3.460773639860055e-05 7 1 6 5
-0.0012251662323599529 7 1 6 6
0.0013833335748553212 7 1 7 1
0.000331324530185965 7 2 1 1
-0.0036599357126643937 7 2 2 1
8.011273574356948e-05 7 2 2 2
-7.149903300854348e-05 7 2 3 1
0.00019301779483200495 7 2 3 2
0.00017117712237479856 7 2 3 3
7.574014921346564e-05 7 2 4 1
-0.0006621397476455107 7 2 4 2
-0.002018020108324903 7 2 4 3
0.00017558169469000443 7 2 4 4
6.788216315627632e-05 7 2 5 1
0.00016799140150218017 7 2 5 2
0.0001744494781328143 7 2 5 3
-0.0008605652035427537 7 2 5 4
-0.000339893282613283 7 2 5 5
2.9275568972632088e-05 7 2 6 1
0.00015623622716170083 7 2 6 2
-0.0004377700769698088 7 2 6 3
-1.2003672342267782e-06 7 2 6 4
-0.0005101247061871801 7 2 6 5
-0.0001279353914756847 7 2 6 6
-3.9755083641159674e-05 7 2 7 1
0.004783219835610168 7 2 7 2
0.0004657040532268196 7 3 1 1
-0.003208156653013877 7 3 2 1
0.0004376451617677969 7 3 2 2
0.00024562202328366414 7 3 3 1
0.00040983459247641047 7 3 3 2
0.0002031234495802117 7 3 3 3
1.2323662639390187e-05 7 3 4 1
-0.0006499295322276419 7 3 4 2
-0.0007301826807615825 7 3 4 3
0.00045886845855366935 7 3 4 4
0.00044199509819995624 7 3 5 1
4.0695760963377424e-05 7 3 5 2
0.00019078432721886376 7 3 5 3
-0.0006242377353985125 7 3 5 4
0.0008970118211622434 7 3 5 5
7.533868908440395e-05 7 3 6 1
0.0017306571423594409 7 3 6 2
-0.0001664915955314359 7 3 6 3
2.205637116604702e-06 7 3 6 4
-0.00045717857564145424 7 3 6 5
0.0012193416301373554 7 3 6 6
0.0002960943692559879 7 3 7 1
0.0023453544265694456 7 3 7 2
0.012873270733282266 7 3 7 3
-0.000988914950303249 7 4 1 1
0.0004486565862140986 7 4 2 1
-0.002454907288932967 7 4 2 2
0.00010231484314637674 7 4 3 1
-0.00022793032869784446 7 4 3 2
-0.0004473886601820472 7 4 3 3
8.740511283555795e-05 7 4 4 1
0.00014178212331646388 7 4 4 2
0.0007105017646036333 7 4 4 3
-0.0007916244866047902 7 4 4 4
0.00011837999941279449 7 4 5 1
-0.0004425890582070921 7 4 5 2
-0.00047280857051229926 7 4 5 3
0.00026439182091180554 7 4 5 4
0.0006596509385045863 7 4 5 5
-0.0001390773668576168 7 4 6 1
0.0002755093582773138 7 4 6 2
0.0002815589228633593 7 4 6 3
6.047173371923345e-05 7 4 6 4
5.997323500924335e-07 7 4 6 5
0.00014761582280358156 7 4 6 6
-0.00037388085188151617 7 4 7 1
-4.236442100937601e-05 7 4 7 2
2.7700011973207333e-05 7 4 7 3
0.0016231563584647557 7 4 7 4
-0.00015657383628603437 7 5 1 1
0.0024620498431773153 7 5 2 1
-0.00023374257610370288 7 5 2 2
-0.00032719363264969265 7 5 3 1
-0.000508135651492266 7 5 3 2
0.0002907523082848434 7 5 3 3
2.7902352359927983e-05 7 5 4 1
8.910356777833611e-06 7 5 4 2
-0.00030802492486395913 7 5 4 3
-1.4140097128493762e-05 7 5 4 4
-0.0017433451261376404 7 5 5 1
4.265284748742037e-05 7 5 5 2
0.0004981151429384465 7 5 5 3
0.0007687017543435097 7 5 5 4
-0.002449407114580984 7 5 5 5
0.00019824750575233232 7 5 6 1
-0.00495492694643216 7 5 6 2
-0.000514947524181431 7 5 6 3
6.374785520022882e-07 7 5 6 4
0.001011641275916834 7 5 6 5
-0.0026615926727249915 7 5 6 6
-0.0006597675724170044 7 5 7 1
-0.007130836793036949 7 5 7 2
-0.024755614288346297 7 5 7 3
-0.00027242354492390276 7 5 7 4
0.06482509355069087 7 5 7 5
0.0006438064400660942 7 6 1 1
0.00026759014980823115 7 6 2 1
0.002377503506037209 7 6 2 2
4.00517687929041e-05 7 6 3 1
0.0001680877067214596 7 6 3 2
0.000787387768376222 7 6 3 3
-0.00021586822621327763 7 6 4 1
3.208579254076e-05 7 6 4 2
0.00041969129142049524 7 6 4 3
0.0005210556054742445 7 6 4 4
4.475766036490675e-05 7 6 5 1
-0.0006106335031189367 7 6 5 2
0.00014823151466307255 7 6 5 3
0.00028037437441905545 7 6 5 4
0.0015080716605163104 7 6 5 5
0.00026303619504574813 7 6 6 1
0.0003472953122608993 7 6 6 2
0.0004423741846398556 7 6 6 3
2.432910017103834e-05 7 6 6 4
-0.0002532144986445485 7 6 6 5
0.001389811311216201 7 6 6 6
0.00029822743855880107 7 6 7 1
-0.0001353849468925535 7 6 7 2
-0.00027575986558256096 7 6 7 3
-0.0005985010264628893 7 6 7 4
0.0006826514479649147 7 6 7 5
0.007127143521773175 7 6 7 6
0.17741530401202826 7 7 1 1
-0.0017542796356214948 7 7 2 1
0.2153642265366759 7 7 2 2
0.0007264340971924316 7 7 3 1
0.007899540968457488 7 7 3 2
0.21935892020413733 7 7 3 3
-0.012487319135689836 7 7 4 1
-0.0005538025690526117 7 7 4 2
-0.0016130619689273575 7 7 4 3
0.1823830173684385 7 7 4 4
-0.0003385954420340744 7 7 5 1
-0.019130927788875707 7 7 5 2
0.008475661735323584 7 7 5 3
-0.0007217857971161261 7 7 5 4
0.28052799242757576 7 7 5 5
0.02628315820970346 7 7 6 1
-0.0007819095560213753 7 7 6 2
-0.0010739456311951322 7 7 6 3
0.0010456421628023418 7 7 6 4
0.00029767398472981725 7 7 6 5
0.27447831726825217 7 7 6 6
-0.001660009174177725 7 7 7 1
-0.0007521118582180196 7 7 7 2
-0.0006771308907084647 7 7 7 3
0.0004717078416596412 7 7 7 4
0.0017099758602638188 7 7 7 5
0.0016419980497969335 7 7 7 6
0.29932838638616516 7 7 7 7
0.004356872330921935 8 1 1 1
-0.0016187678367665184 8 1 2 1
0.008920898624253569 8 1 2 2
-0.0002833209270673011 8 1 3 1
0.0006139854336387381 8 1 3 2
0.0002472564153522841 8 1 3 3
8.710235391680058e-05 8 1 4 1
-0.0003846216790752895 8 1 4 2
-0.0020306637322929743 8 1 4 3
0.0020244498826241263 8 1 4 4
-0.00040251847209922634 8 1 5 1
0.002856729733016199 8 1 5 2
0.001379422856691155 8 1 5 3
-0.0006803580199704345 8 1 5 4
-0.004678404295571845 8 1 5 5
8.769518509113963e-05 8 1 6 1
-0.0008336307916300162 8 1 6 2
-0.0007235610537904712 8 1 6 3
-0.00028745639613912287 8 1 6 4
0.00013010248126190264 8 1 6 5
-0.003272022556270353 8 1 6 6
-0.0007220450825344961 8 1 7 1
0.00017603800668963742 8 1 7 2
-0.00025396501655799904 8 1 7 3
-0.0011068168217081076 8 1 7 4
0.000841322975353128 8 1 7 5
0.00029693027159094254 8 1 7 6
-0.0039439275603149505 8 1 7 7
0.006786081014318401 8 1 8 1
-0.0004223526833215674 8 2 1 1
0.020995808621141813 8 2 2 1
-1.5833753879171148e-05 8 2 2 2
-0.0005424388041319663 8 2 3 1
-0.00023348187708569808 8 2 3 2
-0.001470321515280499 8 2 3 3
-0.00020338517843622515 8 2 4 1
0.004806974761894362 8 2 4 2
0.02380366732355881 8 2 4 3
0.0005304633304934581 8 2 4 4
0.005323375502780334 8 2 5 1
-0.00031387709623489625 8 2 5 2
-0.0010723764552466341 8 2 5 3
0.008711049490177683 8 2 5 4
0.0021345890824999102 8 2 5 5
-0.00037977024866526647 8 2 6 1
0.011630618345193003 8 2 6 2
0.009353734817800533 8 2 6 3
-7.101100780256932e-05 8 2 6 4
-0.002055071223998186 8 2 6 5
0.0019842373096233662 8 2 6 6
0.0005145035309004945 8 2 7 1
0.001548431673732538 8 2 7 2
0.010562251821354236 8 2 7 3
0.0004376292245398056 8 2 7 4
-0.029230867110775282 8 2 7 5
1.0371970564402054e-05 8 2 7 6
-0.0007266798271475132 8 2 7 7
-0.0017126324328034595 8 2 8 1
0.03291963584257922 8 2 8 2
-0.00044545927640460064 8 3 1 1
0.005029753256277524 8 3 2 1
-0.00031629692418907855 8 3 2 2
-0.00021518837657492405 8 3 3 1
-0.00036582297527699916 8 3 3 2
-4.7393716955468306e-05 8 3 3 3
-0.00016294579951450062 8 3 4 1
0.0018743351525450846 8 3 4 2
0.0008816808127652702 8 3 4 3
-0.00032039816200070696 8 3 4 4
0.00023191700662723806 8 3 5 1
-0.00022910446069152545 8 3 5 2
-0.00017148936975521035 8 3 5 3
0.00034881862501291147 8 3 5 4
0.00016239708926134945 8 3 5 5
-8.110749253459778e-05 8 3 6 1
7.479482232645093e-05 8 3 6 2
0.00025037118793145435 8 3 6 3
-1.0156936970485859e-05 8 3 6 4
0.00023306949519917314 8 3 6 5
-0.0001625035908634267 8 3 6 6
-3.6081486468241905e-05 8 3 7 1
6.477441878860552e-05 8 3 7 2
-0.0027148888195842927 8 3 7 3
4.9582795032633796e-05 8 3 7 4
0.0032885109717379064 8 3 7 5
0.00015704261025873382 8 3 7 6
0.00013028556150838875 8 3 7 7
-0.00013588606287338593 8 3 8 1
-0.00028502584100476296 8 3 8 2
0.0049207980584602875 8 3 8 3
0.0020585925538019792 8 4 1 1
8.228980171235835e-05 8 4 2 1
0.0064056167760338815 8 4 2 2
-0.00034157000892432013 8 4 3 1
0.000808545113343207 8 4 3 2
-0.00013535588207320306 8 4 3 3
3.070115174573725e-05 8 4 4 1
-8.279279007594903e-05 8 4 4 2
0.00012606206634244133 8 4 4 3
0.001013764080787126 8 4 4 4
-1.691885100088085e-05 8 4 5 1
0.0013342002466772483 8 4 5 2
0.0001266159939415475 8 4 5 3
0.0001059275652009908 8 4 5 4
-0.0010505698810202692 8 4 5 5
-0.0003856808828292032 8 4 6 1
0.00020031197660903548 8 4 6 2
0.0001542215435366782 8 4 6 3
-0.00015383000399207635 8 4 6 4
-5.6725575923712823e-05 8 4 6 5
-0.0009864192444759435 8 4 6 6
-0.0003956770006215867 8 4 7 1
6.0615442842186025e-05 8 4 7 2
3.253283077521456e-05 8 4 7 3
-0.001162384053313236 8 4 7 4
6.137251339178273e-05 8 4 7 5
0.0006808182579781869 8 4 7 6
-0.0009956757236268584 8 4 7 7
0.003276798457820049 8 4 8 1
8.133911666455733e-05 8 4 8 2
-0.00010032701757596829 8 4 8 3
0.004335666514409274 8 4 8 4
-0.0002532518024827578 8 5 1 1
0.0035419208036820485 8 5 2 1
-0.0002573735790415985 8 5 2 2
6.84395163100076e-05 8 5 3 1
-0.00038305910177574635 8 5 3 2
1.0059753254391126e-05 8 5 3 3
-4.562309364491046e-05 8 5 4 1
0.0008682048187082115 8 5 4 2
0.000619172522786851 8 5 4 3
-9.042953551700873e-05 8 5 4 4
-0.0010162587690010043 8 5 5 1
0.0002177665309252146 8 5 5 2
0.00011132794249938218 8 5 5 3
0.0004385250580538103 8 5 5 4
-0.0007048185571208093 8 5 5 5
7.664779958636424e-05 8 5 6 1
-0.0016639411476730467 8 5 6 2
0.00013004164274943585 8 5 6 3
-2.5195435969149323e-05 8 5 6 4
0.00042809874739837926 8 5 6 5
-0.0008985641350307587 8 5 6 6
-8.870031105625341e-05 8 5 7 1
-0.006098184738562786 8 5 7 2
-0.006934030785085133 8 5 7 3
-9.896292570418597e-06 8 5 7 4
0.02009470491448677 8 5 7 5
3.2123593809162056e-05 8 5 7 6
0.0008482089132320551 8 5 7 7
0.0002427794744455022 8 5 8 1
-0.01062845796624514 8 5 8 2
0.0009725642071487359 8 5 8 3
-6.342923012941279e-05 8 5 8 4
0.015118113728614248 8 5 8 5
0.000430006209111932 8 6 1 1
-0.0006004911110396498 8 6 2 1
0.0023597251407574166 8 6 2 2
-6.522438120461324e-05 8 6 3 1
0.0005162005866256129 8 6 3 2
0.0003450766191952393 8 6 3 3
-0.0002356258993317474 8 6 4 1
-6.960578954125178e-05 8 6 4 2
-0.0005424313890794656 8 6 4 3
6.594630065194717e-05 8 6 4 4
-1.2783686507402579e-05 8 6 5 1
-0.0003731125618208462 8 6 5 2
1.602297024218371e-05 8 6 5 3
-0.0002759715564559764 8 6 5 4
0.0008714657269104935 8 6 5 5
-0.00011293174588879491 8 6 6 1
7.233390045427556e-05 8 6 6 2
-0.00029004388549732805 8 6 6 3
-5.779782053335898e-05 8 6 6 4
-9.264784554916849e-05 8 6 6 5
0.0010489749860220195 8 6 6 6
0.00018066613611313702 8 6 7 1
0.0002470149993403034 8 6 7 2
0.0007839699187519732 8 6 7 3
-0.00035493070528557814 8 6 7 4
-0.0017591296189273886 8 6 7 5
0.0004722397373581527 8 6 7 6
0.0009111547575513527 8 6 7 7
0.0008015154364912332 8 6 8 1
0.0007796005821775718 8 6 8 2
-0.000220578138167748 8 6 8 3
0.0006574211073380531 8 6 8 4
-0.0007257157638232804 8 6 8 5
0.005524123092740767 8 6 8 6
-0.0032548196532195977 8 7 1 1
0.0008870226904119234 8 7 2 1
-0.001039070270706895 8 7 2 2
3.83399272496252e-05 8 7 3 1
0.0012752210203024414 8 7 3 2
-0.0035534485657027905 8 7 3 3
0.0001990366308512202 8 7 4 1
0.00017230478903332465 8 7 4 2
0.001197097367922239 8 7 4 3
-0.0035102388562585057 8 7 4 4
0.00013546114658871217 8 7 5 1
-0.004213884792166311 8 7 5 2
-0.0031649918553929594 8 7 5 3
0.0006026639963340241 8 7 5 4
0.005183463071312079 8 7 5 5
-0.0012769412594086681 8 7 6 1
0.0006503710910715444 8 7 6 2
0.0008026054112876485 8 7 6 3
0.000669832237418751 8 7 6 4
-0.00014358440380608505 8 7 6 5
0.0006084612079163734 8 7 6 6
-0.0004040048070431553 8 7 7 1
-0.00032960641929959095 8 7 7 2
-0.0007191898753770653 8 7 7 3
4.593619265894203e-05 8 7 7 4
0.0016845079162065742 8 7 7 5
7.998983804804559e-05 8 7 7 6
0.002163562315661804 8 7 7 7
-0.0005428361413001109 8 7 8 1
-3.068989603608677e-05 8 7 8 2
0.00031348486120542365 8 7 8 3
-1.1602130467310815e-05 8 7 8 4
0.0003161284613548614 8 7 8 5
2.2536442374190657e-05 8 7 8 6
0.00760829580049218 8 7 8 7
0.18423019445196037 8 8 1 1
-0.00211422190542549 8 8 2 1
0.21784381415810358 8 8 2 2
0.0007030138329924853 8 8 3 1
0.006698095593835354 8 8 3 2
0.21750765700760813 8 8 3 3
-0.012217130723280071 8 8 4 1
-0.0005450115721458737 8 8 4 2
-0.001317965860962729 8 8 4 3
0.18950789099268817 8 8 4 4
3.7781732917994276e-05 8 8 5 1
-0.01595833678901792 8 8 5 2
0.01662425943523045 8 8 5 3
-0.00042280231880638267 8 8 5 4
0.258126270223668 8 8 5 5
0.02528496985716615 8 8 6 1
0.0002359870901052644 8 8 6 2
-0.0005510598307473827 8 8 6 3
-5.5765330789964694e-05 8 8 6 4
6.771985552781346e-06 8 8 6 5
0.2613098879869284 8 8 6 6
-0.0012869492211503462 8 8 7 1
-2.1933475696126717e-05 8 8 7 2
0.001424318585696147 8 8 7 3
1.4820027060485373e-05 8 8 7 4
-0.002845432272837773 8 8 7 5
0.0013303503019614956 8 8 7 6
0.26836042208606264 8 8 7 7
-0.002958716572932941 8 8 8 1
0.001879115309041334 8 8 8 2
-0.00020492038424307376 8 8 8 3
-0.0006406048767302412 8 8 8 4
-0.0012477894403309917 8 8 8 5
0.0009646857189222611 8 8 8 6
3.978705808448481e-05 8 8 8 7
0.2700046456489125 8 8 8 8
0.00030110152061942075 9 1 1 1
0.005459969632641021 9 1 2 1
0.0007541351678689758 9 1 2 2
-0.0004436229344439972 9 1 3 1
-2.4999328817264753e-06 9 1 3 2
0.00033750763215728173 9 1 3 3
-0.00015099963834751438 9 1 4 1
0.0011621819221661574 9 1 4 2
0.0038100295319647448 9 1 4 3
0.00043695085173439766 9 1 4 4
0.0010144896151085445 9 1 5 1
1.7212064506086356e-06 9 1 5 2
8.546233099331407e-05 9 1 5 3
0.0010697812386172571 9 1 5 4
0.0007741508761764858 9 1 5 5
0.0001903509256312285 9 1 6 1
0.0017041059118529747 9 1 6 2
0.0012163803944866443 9 1 6 3
-3.196820194471638e-05 9 1 6 4
-0.00043830190739216254 9 1 6 5
0.0010303847614793835 9 1 6 6
6.709383153885972e-05 9 1 7 1
-0.0003428534569941109 9 1 7 2
0.001822068337701665 9 1 7 3
2.9285615407236745e-05 9 1 7 4
-0.005214188525506983 9 1 7 5
-6.2705956697732e-05 9 1 7 6
0.0005034934982196485 9 1 7 7
-9.721353208499495e-05 9 1 8 1
0.0056573729558581694 9 1 8 2
0.0006997933671276429 9 1 8 3
0.00016202098232873346 9 1 8 4
-0.0015752761746060462 9 1 8 5
0.0002536677717540071 9 1 8 6
-4.076918660258824e-05 9 1 8 7
0.0008690067776415067 9 1 8 8
0.0024567911947606874 9 1 9 1
0.0023860080024813673 9 2 1 1
0.0007388086974868987 9 2 2 1
-0.0002328889991848874 9 2 2 2
-4.1354370584656804e-05 9 2 3 1
0.00035537451485160264 9 2 3 2
-0.0002806589438769633 9 2 3 3
0.0005412198303325103 9 2 4 1
0.00015074438588737988 9 2 4 2
0.0008287073876534365 9 2 4 3
0.001950696316599097 9 2 4 4
0.00017493587142280366 9 2 5 1
0.002398562883394349 9 2 5 2
0.002081522338599386 9 2 5 3
0.00041432764772009027 9 2 5 4
-0.007007270192562701 9 2 5 5
0.0006013201303334342 9 2 6 1
0.0005506146665996139 9 2 6 2
0.00040686444212174416 9 2 6 3
-0.00037681322228093166 9 2 6 4
-1.7285953810545548e-05 9 2 6 5
-0.006881921675759795 9 2 6 6
-0.0005134385283737646 9 2 7 1
0.00017953081183973661 9 2 7 2
0.00043299487881319704 9 2 7 3
-0.00015546078717866216 9 2 7 4
-0.0010377742833029577 9 2 7 5
-0.001542679549244162 9 2 7 6
-0.006961792199954117 9 2 7 7
0.0022609722579587004 9 2 8 1
0.0008847433713852166 9 2 8 2
-0.00011404526476446381 9 2 8 3
0.00026535352273628906 9 2 8 4
-0.00028725474569229976 9 2 8 5
-0.002665786900485854 9 2 8 6
-0.0013112796326686423 9 2 8 7
-0.00481078443523416 9 2 8 8
0.00021172813189266953 9 2 9 1
0.005143512868947586 9 2 9 2
0.0002910213678255617 9 3 1 1
0.00031419475172039026 9 3 2 1
0.0017741107445035675 9 3 2 2
-2.5588895708127785e-05 9 3 3 1
6.726478506674154e-05 9 3 3 2
0.00032548059426423104 9 3 3 3
3.446504625500698e-05 9 3 4 1
5.046445366863914e-05 9 3 4 2
0.0002951433101025809 9 3 4 3
0.00014675188515239903 9 3 4 4
2.4551354144658778e-05 9 3 5 1
0.00019683446243959896 9 3 5 2
-7.462657274788253e-05 9 3 5 3
0.000160119663506994 9 3 5 4
0.0009456438724800539 9 3 5 5
0.00012505044332257432 9 3 6 1
0.00012390543872058007 9 3 6 2
0.0002603134207978771 9 3 6 3
-0.0001051114187469263 9 3 6 4
8.538299569811111e-05 9 3 6 5
0.0008035439523055518 9 3 6 6
1.6946410683363486e-05 9 3 7 1
-4.67299701583353e-05 9 3 7 2
-0.0002798441107973708 9 3 7 3
-0.0008499918112052661 9 3 7 4
0.0006431108396300287 9 3 7 5
-0.002689896504468464 9 3 7 6
0.0013266026652324664 9 3 7 7
0.0006463336924375 9 3 8 1
-0.00013277391999501958 9 3 8 2
8.544092407567544e-05 9 3 8 3
0.0008177987398074703 9 3 8 4
0.00024270735962744473 9 3 8 5
0.0004234423256032267 9 3 8 6
-2.9017217466670367e-05 9 3 8 7
0.0008250623923663599 9 3 8 8
5.256965307820504e-05 9 3 9 1
9.169858741952943e-05 9 3 9 2
0.0028166117647737917 9 3 9 3
-0.00011760429340407219 9 4 1 1
0.0012290729938919174 9 4 2 1
0.00012681484630048498 9 4 2 2
8.849966204927183e-05 9 4 3 1
-9.459089479110594e-05 9 4 3 2
-7.404625799634278e-05 9 4 3 3
6.36907923310154e-06 9 4 4 1
0.0006491140706229401 9 4 4 2
-0.0006448920135665149 9 4 4 3
-0.00018036157013318527 9 4 4 4
-0.00011742794205938878 9 4 5 1
3.978129256112313e-05 9 4 5 2
-6.415570656936202e-05 9 4 5 3
-0.000230659118460219 9 4 5 4
-0.00018042184704970056 9 4 5 5
-7.676379331876834e-05 9 4 6 1
-0.0006523656643245 9 4 6 2
-0.0004426537526203613 9 4 6 3
1.3520686444952081e-05 9 4 6 4
0.00020020363367444262 9 4 6 5
-0.00029855197621292797 9 4 6 6
-2.499112662704225e-05 9 4 7 1
-0.00042163336865436374 9 4 7 2
-0.0018148300794785818 9 4 7 3
-9.2730323120827e-05 9 4 7 4
0.0015657259329554575 9 4 7 5
3.946846913127792e-05 9 4 7 6
-9.565272369174978e-05 9 4 7 7
0.00019951008657456159 9 4 8 1
-0.0008431144934233401 9 4 8 2
0.0008851901100725319 9 4 8 3
0.00014151715240853097 9 4 8 4
0.0011976990118525703 9 4 8 5
-5.6267872431363516e-05 9 4 8 6
5.836267226657404e-05 9 4 8 7
-0.0003057126799107973 9 4 8 8
-0.0004395107969412545 9 4 9 1
-5.5098094460844305e-05 9 4 9 2
9.26484977541316e-05 9 4 9 3
0.0012213922611734286 9 4 9 4
0.0002993521552116606 9 5 1 1
0.00023839236472597572 9 5 2 1
0.0007637974273778138 9 5 2 2
5.322150544941368e-05 9 5 3 1
0.00020892277870016864 9 5 3 2
-0.00018589761297722613 9 5 3 3
6.627237313919896e-05 9 5 4 1
5.8586324789498496e-05 9 5 4 2
0.00030900488769246016 9 5 4 3
0.00014770480132839467 9 5 4 4
5.122654387971117e-05 9 5 5 1
-0.0004861210671603163 9 5 5 2
0.00022643992916287616 9 5 5 3
0.00021638289503283326 9 5 5 4
-0.0010213664846480727 9 5 5 5
-0.00021535919455178824 9 5 6 1
0.0003136493254636605 9 5 6 2
0.0003363899663476036 9 5 6 3
1.4920078025928007e-05 9 5 6 4
-0.0002465310798693164 9 5 6 5
-0.0004118629447200227 9 5 6 6
-0.00036004442697949116 9 5 7 1
-0.0001731050110044733 9 5 7 2
6.971610064459743e-05 9 5 7 3
-0.0006682966773129767 9 5 7 4
7.597077378510662e-05 9 5 7 5
0.006123117151260345 9 5 7 6
-0.0012624979605407873 9 5 7 7
-7.542642696472596e-05 9 5 8 1
0.00018126779467270545 9 5 8 2
5.9750374983007206e-05 9 5 8 3
0.0003407057214825362 9 5 8 4
5.252732803497652e-05 9 5 8 5
0.0019418188005501174 9 5 8 6
1.29012460039045e-05 9 5 8 7
-0.0005892440295355843 9 5 8 8
-1.584909234972428e-05 9 5 9 1
-0.00180354505948071 9 5 9 2
-0.0018314870983373367 9 5 9 3
2.4250827000556845e-05 9 5 9 4
0.00810755101305917 9 5 9 5
-0.00012134851315873482 9 6 1 1
0.00401324532147604 9 6 2 1
-0.00017897298053743462 9 6 2 2
-0.0003283769696590512 9 6 3 1
-0.0005600373348950739 9 6 3 2
0.0005297455080184823 9 6 3 3
-3.5005238161661854e-05 9 6 4 1
0.0003643717507972336 9 6 4 2
-0.001004002423340454 9 6 4 3
-1.0366797967880563e-05 9 6 4 4
-0.0018545556600698529 9 6 5 1
0.0001367433200226625 9 6 5 2
0.0005813629022930344 9 6 5 3
0.0005074548156656305 9 6 5 4
-0.0023824962487167534 9 6 5 5
0.0004368804440535862 9 6 6 1
-0.006419272867767485 9 6 6 2
-0.0006478961490933333 9 6 6 3
-3.8115761041475976e-05 9 6 6 4
0.0011755398560443736 9 6 6 5
-0.0033569653596777584 9 6 6 6
-0.0006116627666132934 9 6 7 1
-0.006546346792876476 9 6 7 2
-0.023430471472363518 9 6 7 3
-0.0002200313602907111 9 6 7 4
0.05532943401723248 9 6 7 5
0.0007392811719605937 9 6 7 6
0.0013945435451374994 9 6 7 7
0.0009931911118796378 9 6 8 1
-0.030232305247883808 9 6 8 2
0.005212774078815267 9 6 8 3
2.975644065367077e-05 9 6 8 4
0.019690427100850606 9 6 8 5
-0.002205513600777205 9 6 8 6
0.00158548483692294 9 6 8 7
-0.0032503372926406655 9 6 8 8
-0.005880047413615058 9 6 9 1
-0.001103566060771231 9 6 9 2
0.0007735315471094142 9 6 9 3
0.00320149366796784 9 6 9 4
0.00011041461698427345 9 6 9 5
0.07367366030365483 9 6 9 6
-0.00017565127747459634 9 7 1 1
-0.01535590958855526 9 7 2 1
0.00040863023433200475 9 7 2 2
-0.00216205084525795 9 7 3 1
0.00013451722898354893 9 7 3 2
0.0013295799620913716 9 7 3 3
0.00014241227341289873 9 7 4 1
-0.002703464003509489 9 7 4 2
-0.024269550137190343 9 7 4 3
-0.001008204849004336 9 7 4 4
-0.003403663861838072 9 7 5 1
-0.0003263347383455495 9 7 5 2
0.0004589134601823989 9 7 5 3
-0.012887785002185544 9 7 5 4
0.0003819527286944535 9 7 5 5
2.603577795721597e-05 9 7 6 1
-0.01789572762516111 9 7 6 2
-0.018525072727595054 9 7 6 3
0.00018102711433947498 9 7 6 4
0.005392810746888895 9 7 6 5
0.0008365872324734638 9 7 6 6
-8.129332690982835e-05 9 7 7 1
0.0008216426593880404 9 7 7 2
0.00153536204959941 9 7 7 3
-0.00044133367849672183 9 7 7 4
-0.002139259596526124 9 7 7 5
-0.00046882233982203486 9 7 7 6
0.0018531035957230343 9 7 7 7
0.0010157174851159745 9 7 8 1
-0.012954220142424158 9 7 8 2
-0.0007536811659270479 9 7 8 3
-0.00021467654069231467 9 7 8 4
-0.000999615837403706 9 7 8 5
0.000693036232883079 9 7 8 6
-0.0013447899740752145 9 7 8 7
0.0011702070892639137 9 7 8 8
-0.0015866279239942348 9 7 9 1
-0.0008473349455075952 9 7 9 2
-0.0005360635004318574 9 7 9 3
0.0005109324926154266 9 7 9 4
-0.00019226604019244065 9 7 9 5
-0.002153831306588651 9 7 9 6
0.03538660333781266 9 7 9 7
0.00022201035737073166 9 8 1 1
0.004691420495845126 9 8 2 1
1.3379683179047048e-05 9 8 2 2
-0.00019672746503801003 9 8 3 1
-8.849768931222121e-05 9 8 3 2
-9.042560704889183e-05 9 8 3 3
-9.344872771724599e-06 9 8 4 1
0.00034638930229056986 9 8 4 2
0.004901424757596974 9 8 4 3
0.0005410133916565592 9 8 4 4
0.0007018867936480636 9 8 5 1
0.00014198166211843252 9 8 5 2
0.0002453155849697337 9 8 5 3
0.0017188033099868189 9 8 5 4
-0.00037252934395402533 9 8 5 5
0.00017841674673064228 9 8 6 1
-0.0024910105083243957 9 8 6 2
0.0014634186607145705 9 8 6 3
-7.118517587119077e-05 9 8 6 4
0.0014330775265355845 9 8 6 5
-0.0008592230712331358 9 8 6 6
6.352656529077858e-05 9 8 7 1
-0.001074763491590642 9 8 7 2
-0.0006588994398492448 9 8 7 3
3.5679661729584216e-05 9 8 7 4
0.0013125355928356708 9 8 7 5
0.00023457807389509828 9 8 7 6
-0.0006220413718122783 9 8 7 7
-3.894077495803479e-05 9 8 8 1
0.000884954632596676 9 8 8 2
0.0003405191015393922 9 8 8 3
-5.628219542684699e-05 9 8 8 4
0.0006145655911010185 9 8 8 5
-0.00042783276352808684 9 8 8 6
0.00011155834569799113 9 8 8 7
-0.00043789913691479813 9 8 8 8
-0.0002433510167410946 9 8 9 1
0.00015535790532945434 9 8 9 2
6.0368248023848525e-05 9 8 9 3
1.5194230046520064e-05 9 8 9 4