#INFO: **** input file is /home/amychoi7/github_qChem2024/mySimul/genCASsimul/01_CAS/01_hs.py ****
#!/usr/bin/env python

from pyscf import scf
from pyscf import gto,dft

mol = gto.Mole()
mol.verbose = 6
mol.output = 'hs_bp86.out'
mol.atom = """  Fe                 5.22000000    1.05000000   -7.95000000
S                  3.86000000   -0.28000000   -9.06000000
S                  5.00000000    0.95000000   -5.660
S                  4.77000000    3.18000000   -8.740
S                  7.23000000    0.28000000   -8.380
Fe                 5.88000000   -1.05000000   -9.490
S                  6.10000000   -0.95000000  -11.790
S                  6.33000000   -3.18000000   -8.710
C                  6.00000000    4.34000000   -8.170
H                  6.46000000    4.81000000   -9.010
H                  5.53000000    5.08000000   -7.550
H                  6.74000000    3.82000000   -7.600
C                  3.33000000    1.31000000   -5.180
H                  2.71000000    0.46000000   -5.370
H                  3.30000000    1.54000000   -4.130
H                  2.97000000    2.15000000   -5.730
C                  5.10000000   -4.34000000   -9.280
H                  5.56000000   -5.05000000   -9.930
H                  4.67000000   -4.84000000   -8.440
H                  4.34000000   -3.81000000   -9.810
C                  7.77000000   -1.31000000  -12.270
H                  7.84000000   -1.35000000  -13.340
H                  8.42000000   -0.54000000  -11.900
H                  8.06000000   -2.25000000  -11.860
"""

mol.basis = 'tzp-dkh'
mol.charge = -2
mol.spin = 10 #na-nb
mol.build()

mf = scf.sfx2c(scf.UKS(mol))
mf.chkfile = 'hs_bp86.chk'
mf.max_cycle = 500
mf.conv_tol = 1.e-4
mf.xc = 'b88,p86' 
mf.scf()

mf2 = scf.newton(mf)
#mf2.ah_start_tol = 1.e-8
#mf2.ah_conv_tol = 1.e-14
mf2.conv_tol = 1.e-12
mf2.kernel()
#INFO: ******************** input file end ********************


System: uname_result(system='Linux', node='node3', release='5.4.0-167-generic', version='#184-Ubuntu SMP Tue Oct 31 09:21:49 UTC 2023', machine='x86_64', processor='x86_64')  Threads 36
Python 3.7.12 | packaged by conda-forge | (default, Oct 26 2021, 06:08:21) 
[GCC 9.4.0]
numpy 1.21.5  scipy 1.7.3
Date: Mon Jan 22 14:27:58 2024
PySCF version 2.4.0
PySCF path  /home/amychoi7/programs/pyscf
GIT HEAD (branch master) 8b7c13a1f91c04bbfc5397800feb77506df5e7df

[CONFIG] conf_file None
[INPUT] verbose = 6
[INPUT] max_memory = 4000 
[INPUT] num. atoms = 24
[INPUT] num. electrons = 186
[INPUT] charge = -2
[INPUT] spin (= nelec alpha-beta = 2S) = 10
[INPUT] symmetry False subgroup None
[INPUT] Mole.unit = angstrom
[INPUT] Symbol           X                Y                Z      unit          X                Y                Z       unit  Magmom
[INPUT]  1 Fe     5.220000000000   1.050000000000  -7.950000000000 AA    9.864370370230   1.984212430793 -15.023322690292 Bohr   0.0
[INPUT]  2 S      3.860000000000  -0.280000000000  -9.060000000000 AA    7.294342840821  -0.529123314878 -17.120918688559 Bohr   0.0
[INPUT]  3 S      5.000000000000   0.950000000000  -5.660000000000 AA    9.448630622825   1.795239818337 -10.695849865038 Bohr   0.0
[INPUT]  4 S      4.770000000000   3.180000000000  -8.740000000000 AA    9.013993614175   6.009329076117 -16.516206328699 Bohr   0.0
[INPUT]  5 S      7.230000000000   0.280000000000  -8.380000000000 AA   13.662719880605   0.529123314878 -15.835904923855 Bohr   0.0
[INPUT]  6 Fe     5.880000000000  -1.050000000000  -9.490000000000 AA   11.111589612443  -1.984212430793 -17.933500922122 Bohr   0.0
[INPUT]  7 S      6.100000000000  -0.950000000000 -11.790000000000 AA   11.527329359847  -1.795239818337 -22.279871008622 Bohr   0.0
[INPUT]  8 S      6.330000000000  -3.180000000000  -8.710000000000 AA   11.961966368497  -6.009329076117 -16.459514544962 Bohr   0.0
[INPUT]  9 C      6.000000000000   4.340000000000  -8.170000000000 AA   11.338356747390   8.201411380612 -15.439062437697 Bohr   0.0
[INPUT] 10 H      6.460000000000   4.810000000000  -9.010000000000 AA   12.207630764690   9.089582659158 -17.026432382331 Bohr   0.0
[INPUT] 11 H      5.530000000000   5.080000000000  -7.550000000000 AA   10.450185468845   9.599808712791 -14.267432240466 Bohr   0.0
[INPUT] 12 H      6.740000000000   3.820000000000  -7.600000000000 AA   12.736754079569   7.218753795839 -14.361918546694 Bohr   0.0
[INPUT] 13 C      3.330000000000   1.310000000000  -5.180000000000 AA    6.292787994802   2.475541223180  -9.788781325247 Bohr   0.0
[INPUT] 14 H      2.710000000000   0.460000000000  -5.370000000000 AA    5.121157797571   0.869274017300 -10.147829288914 Bohr   0.0
[INPUT] 15 H      3.300000000000   1.540000000000  -4.130000000000 AA    6.236096211065   2.910178231830  -7.804568894454 Bohr   0.0
[INPUT] 16 H      2.970000000000   2.150000000000  -5.730000000000 AA    5.612486589958   4.062911167815 -10.828130693758 Bohr   0.0
[INPUT] 17 C      5.100000000000  -4.340000000000  -9.280000000000 AA    9.637603235282  -8.201411380612 -17.536658435964 Bohr   0.0
[INPUT] 18 H      5.560000000000  -5.050000000000  -9.930000000000 AA   10.506877252582  -9.543116929054 -18.764980416931 Bohr   0.0
[INPUT] 19 H      4.670000000000  -4.840000000000  -8.440000000000 AA    8.825021001719  -9.146274442895 -15.949288491329 Bohr   0.0
[INPUT] 20 H      4.340000000000  -3.810000000000  -9.810000000000 AA    8.201411380612  -7.199856534593 -18.538213281983 Bohr   0.0
[INPUT] 21 C      7.770000000000  -1.310000000000 -12.270000000000 AA   14.683171987871  -2.475541223180 -23.186939548413 Bohr   0.0
[INPUT] 22 H      7.840000000000  -1.350000000000 -13.340000000000 AA   14.815452816590  -2.551130268163 -25.208946501698 Bohr   0.0
[INPUT] 23 H      8.420000000000  -0.540000000000 -11.900000000000 AA   15.911493968838  -1.020452107265 -22.487740882324 Bohr   0.0
[INPUT] 24 H      8.060000000000  -2.250000000000 -11.860000000000 AA   15.231192563994  -4.251883780271 -22.412151837342 Bohr   0.0
[INPUT] ---------------- BASIS SET ---------------- 
[INPUT] l, kappa, [nprim/nctr], expnt,             c_1 c_2 ...
[INPUT] C
[INPUT] 0    0    [5    /1   ]  7615.0599911      0.0020534
                                1145.08684615     0.0130533
                                261.91952431      0.0643852
                                74.66834196       0.2434904
                                24.40551202       0.6770175
[INPUT] 0    0    [2    /1   ]  8.68679013        0.5654885
                                3.23657623        0.4345114
[INPUT] 0    0    [1    /1   ]  1.30179999           1
[INPUT] 0    0    [1    /1   ]  0.52768873           1
[INPUT] 0    0    [1    /1   ]  0.15694534           1
[INPUT] 1    0    [4    /1   ]  34.50767936       0.0105595
                                7.91304441        0.0694749
                                2.36615458        0.2809656
                                0.81172425        0.6389997
[INPUT] 1    0    [1    /1   ]  0.31228882           1
[INPUT] 1    0    [1    /1   ]  0.11400266           1
[INPUT] 2    0    [1    /1   ]  1.154049             1
[INPUT] 2    0    [1    /1   ]  0.3511286            1
[INPUT] 3    0    [1    /1   ]  0.819312             1
[INPUT] H
[INPUT] 0    0    [3    /1   ]  34.87758369       0.0233625
                                5.23397281        0.1708758
                                1.18503342        0.8057615
[INPUT] 0    0    [1    /1   ]  0.32833943           1
[INPUT] 0    0    [1    /1   ]  0.11031918           1
[INPUT] 1    0    [1    /1   ]  0.718844             1
[INPUT] 1    0    [1    /1   ]  0.35                 1
[INPUT] 2    0    [1    /1   ]  1.07506              1
[INPUT] S
[INPUT] 0    0    [5    /1   ]  131334.981146     0.0045222
                                20181.9004192     0.0170834
                                4835.70463137     0.06138
                                1439.7381539      0.2163513
                                476.15426264      0.7006628
[INPUT] 0    0    [2    /1   ]  3.37495581        -0.6416942
                                1.51749916        -0.3583057
[INPUT] 0    0    [1    /1   ]  168.68252004         1
[INPUT] 0    0    [1    /1   ]  62.92253974          1
[INPUT] 0    0    [1    /1   ]  24.33329987          1
[INPUT] 0    0    [1    /1   ]  6.86573753           1
[INPUT] 0    0    [1    /1   ]  0.44651463           1
[INPUT] 0    0    [1    /1   ]  0.16174242           1
[INPUT] 1    0    [6    /1   ]  754.1523594       0.0016298
                                193.63344693      0.0107176
                                64.14106193       0.0507981
                                23.75714449       0.1689232
                                9.45234322        0.3528926
                                3.93996824        0.4150384
[INPUT] 1    0    [1    /1   ]  1.72080555           1
[INPUT] 1    0    [1    /1   ]  0.77076298           1
[INPUT] 1    0    [1    /1   ]  0.28737379           1
[INPUT] 1    0    [1    /1   ]  0.1011323            1
[INPUT] 2    0    [1    /1   ]  0.264839             1
[INPUT] 2    0    [1    /1   ]  0.781337             1
[INPUT] 3    0    [1    /1   ]  0.58379              1
[INPUT] Fe
[INPUT] 0    0    [6    /1   ]  489363.919998     0.0030585
                                76936.8824954     0.0091433
                                19111.8789691     0.0269235
                                5953.14711781     0.0759663
                                2026.23124631     0.2328575
                                720.41679911      0.6520506
[INPUT] 0    0    [2    /1   ]  109.11058782      0.7224607
                                46.72162464       0.2775392
[INPUT] 0    0    [2    /1   ]  2.44747866        0.3809404
                                1.1660482         0.6190595
[INPUT] 0    0    [1    /1   ]  270.92857792         1
[INPUT] 0    0    [1    /1   ]  17.32120133          1
[INPUT] 0    0    [1    /1   ]  7.50518249           1
[INPUT] 0    0    [1    /1   ]  0.53243004           1
[INPUT] 0    0    [1    /1   ]  0.11921823           1
[INPUT] 0    0    [1    /1   ]  0.04225089           1
[INPUT] 1    0    [5    /1   ]  4524.59978956     0.0025908
                                1117.10671951     0.0145309
                                383.18041997      0.0647179
                                150.91292643      0.2368595
                                63.20731062       0.6813006
[INPUT] 1    0    [2    /1   ]  27.51598778       0.4837345
                                12.38754653       0.5162654
[INPUT] 1    0    [3    /1   ]  2.50956697        0.4902485
                                1.07890467        0.4747177
                                0.43388971        0.0350337
[INPUT] 1    0    [1    /1   ]  5.64019838           1
[INPUT] 1    0    [1    /1   ]  0.819521             1
[INPUT] 1    0    [1    /1   ]  0.42475725           1
[INPUT] 2    0    [4    /1   ]  57.37689087       0.0186728
                                16.5000892        0.1094061
                                5.79890555        0.3298519
                                2.17706897        0.5420691
[INPUT] 2    0    [1    /1   ]  0.79292368           1
[INPUT] 2    0    [1    /1   ]  0.26063792           1
[INPUT] 3    0    [1    /1   ]  3.44034529           1
[INPUT] 3    0    [1    /1   ]  0.84589748           1
[INPUT] 4    0    [1    /1   ]  2.25265017           1

nuclear repulsion = 2358.93191408317
number of shells = 254
number of NR pGTOs = 948
number of NR cGTOs = 662
basis = tzp-dkh
ecp = {}
CPU time:         2.06


******** <class 'pyscf.x2c.sfx2c1e.sfX2C1eUKS'> ********
method = sfX2C1eUKS
initial guess = minao
damping factor = 0
level_shift factor = 0
DIIS = <class 'pyscf.scf.diis.CDIIS'>
diis_start_cycle = 1
diis_space = 8
SCF conv_tol = 0.0001
SCF conv_tol_grad = None
SCF max_cycles = 500
direct_scf = True
direct_scf_tol = 1e-13
chkfile to save SCF result = 01hs_bp86.chk
max_memory 4000 MB (current use 97 MB)
number electrons alpha = 98  beta = 88
XC library pyscf.dft.libxc version 6.1.0
    S. Lehtola, C. Steigemann, M. J.T. Oliveira, and M. A.L. Marques.,  SoftwareX 7, 1–5 (2018)
XC functionals = b88,p86
    A. D. Becke.,  Phys. Rev. A 38, 3098 (1988)
    J. P. Perdew.,  Phys. Rev. B 33, 8822 (1986)
radial grids: 
    Treutler-Ahlrichs [JCP 102, 346 (1995); DOI:10.1063/1.469408] (M4) radial grids
    
becke partition: Becke, JCP 88, 2547 (1988); DOI:10.1063/1.454033
pruning grids: <function nwchem_prune at 0x7f9297da9320>
grids dens level: 3
symmetrized grids: False
atomic radii adjust function: <function treutler_atomic_radii_adjust at 0x7f9297da97a0>
small_rho_cutoff = 1e-07


******** <class 'pyscf.x2c.sfx2c1e.SpinFreeX2CHelper'> ********
approx = 1e
xuncontract = 1
Set gradient conv threshold to 0.01
Nelec from initial guess = (91.99529993038163, 91.99529993038163)
atom Fe rad-grids = 90, ang-grids = [ 50  50  50  50  50  50  50  50  50  50  50  50  50  50  50  50  50  50
  50  50  50  50  50  50  50  50  50  50  50  50  86  86  86  86  86  86
  86  86  86  86  86  86  86  86  86  86 350 350 350 350 350 350 350 350
 350 350 350 434 434 434 434 434 434 434 434 434 434 434 434 434 434 434
 434 434 434 434 434 434 350 350 350 350 350 350 350 350 350 350 350 350]
atom S rad-grids = 80, ang-grids = [ 50  50  50  50  50  50  50  50  50  50  50  50  50  50  50  50  50  50
  50  50  50  50  50  50  86  86  86  86  86  86  86  86  86  86  86  86
  86 350 350 350 350 350 350 350 350 350 434 434 434 434 434 434 434 434
 434 434 434 434 434 434 434 434 434 434 350 350 350 350 350 350 350 350
 350 350 350 350 350 350 350 350]
atom C rad-grids = 75, ang-grids = [ 50  50  50  50  50  50  50  50  50  50  50  50  50  50  50  50  50  50
  50  50  50  50  50  86  86  86  86  86  86  86  86  86  86 266 266 266
 266 266 266 266 302 302 302 302 302 302 302 302 302 302 302 302 302 302
 302 302 302 302 302 302 266 266 266 266 266 266 266 266 266 266 266 266
 266 266 266]
atom H rad-grids = 50, ang-grids = [ 50  50  50  50  50  50  50  50  50  50  50  50  50  50  86  86  86  86
 266 266 266 266 302 302 302 302 302 302 302 302 302 302 302 302 302 266
 266 266 266 266 266 266 266 266 266 266 266 266 266 266]
tot_boxes 10800, boxes in each direction [16 23 22]
Padding 0 grids
tot grids = 329256
Drop grids 42103
prune_by_density_: 7 padding grids
    CPU time for setting up grids     36.36 sec, wall time      2.46 sec
nelec by numeric integration = [91.99525163 91.99525163]
    CPU time for vxc    127.63 sec, wall time      8.20 sec
    CPU time for init_direct_scf      0.98 sec, wall time      0.06 sec
    CPU time for vj and vk    273.07 sec, wall time     14.81 sec
E1 = -11791.543772153664  Ecoul = 4628.473786613352  Exc = -296.3926610935134
init E= -5100.53073255065
cond(S) = 9543.87904272589
    CPU time for initialize scf    501.31 sec, wall time     29.85 sec
  alpha nocc = 98  HOMO = 0.0509596453479837  LUMO = 0.0527048336479297
  beta  nocc = 88  HOMO = -0.252462217601725  LUMO = -0.0394295234299908

WARN: system HOMO 0.0509596453479837 >= system LUMO -0.0394295234299908

  alpha mo_energy =
[-2.55668481e+02 -2.55668373e+02 -8.84267076e+01 -8.84266966e+01
 -8.84264585e+01 -8.84264476e+01 -8.84226404e+01 -8.84226016e+01
 -2.87147240e+01 -2.87146035e+01 -2.42594312e+01 -2.42593557e+01
 -2.42593313e+01 -2.42593208e+01 -2.42592465e+01 -2.42592174e+01
 -1.00230405e+01 -1.00229344e+01 -1.00228245e+01 -1.00223568e+01
 -7.79000497e+00 -7.78998307e+00 -7.78972545e+00 -7.78971312e+00
 -7.78492528e+00 -7.78486973e+00 -5.76156729e+00 -5.76154740e+00
 -5.76124635e+00 -5.76123340e+00 -5.75992520e+00 -5.75990113e+00
 -5.75979534e+00 -5.75977625e+00 -5.75966569e+00 -5.75965313e+00
 -5.75954741e+00 -5.75953635e+00 -5.75557830e+00 -5.75552136e+00
 -5.75546607e+00 -5.75541047e+00 -5.75530869e+00 -5.75525919e+00
 -2.46018708e+00 -2.45956316e+00 -1.26925837e+00 -1.26682747e+00
 -1.26495996e+00 -1.26318033e+00 -1.26223640e+00 -1.26115358e+00
 -7.83690531e-01 -7.83611142e-01 -7.81880554e-01 -7.81156931e-01
 -6.50056336e-01 -6.40933275e-01 -6.30844286e-01 -6.29363455e-01
 -6.29016438e-01 -6.28821267e-01 -4.65377071e-01 -4.65351809e-01
 -4.64142175e-01 -4.63191411e-01 -4.63095008e-01 -4.62369020e-01
 -4.62111661e-01 -4.61743881e-01 -3.97376269e-01 -3.97000403e-01
 -3.94881588e-01 -3.94543610e-01 -2.89935815e-01 -2.86997057e-01
 -2.81544688e-01 -2.70642010e-01 -2.67855557e-01 -2.67633117e-01
 -2.65846461e-01 -2.58124660e-01 -2.56803916e-01 -2.55836744e-01
 -2.54685323e-01 -2.53901003e-01 -2.53012316e-01 -2.52462218e-01
 -3.94295234e-02 -3.63644822e-02 -3.33123546e-02 -3.08832146e-02
 -1.00521238e-02  5.60751516e-03  2.72265939e-02  2.81699011e-02
  4.39384556e-02  5.09596453e-02  5.27048336e-02  5.52236060e-02
  5.72524480e-02  5.84917574e-02  6.12795821e-02  6.27118810e-02
  8.20296591e-02  1.03654340e-01  1.20838313e-01  1.24879283e-01
  1.30715919e-01  1.35017906e-01  1.37675445e-01  1.39259333e-01
  1.47484685e-01  1.49638163e-01  1.52784466e-01  1.55195181e-01
  1.58130116e-01  1.68218526e-01  1.72656566e-01  1.79307774e-01
  1.80395627e-01  1.89678139e-01  1.91980357e-01  1.96704448e-01
  1.97592244e-01  2.03683577e-01  2.04708941e-01  2.10461545e-01
  2.15428874e-01  2.23924424e-01  2.27452951e-01  2.30755632e-01
  2.35995111e-01  2.40153146e-01  2.46928178e-01  2.50633794e-01
  2.51122983e-01  2.58883024e-01  2.64787917e-01  2.73264938e-01
  2.76975459e-01  2.83771658e-01  2.84739322e-01  2.92658320e-01
  3.00642716e-01  3.00723588e-01  3.07029573e-01  3.09547602e-01
  3.12563236e-01  3.13450825e-01  3.23478784e-01  3.24508548e-01
  3.32500778e-01  3.36744195e-01  3.50314241e-01  3.76137798e-01
  3.77051250e-01  3.79942350e-01  3.85736880e-01  3.97867806e-01
  3.99146529e-01  3.99821689e-01  4.09718921e-01  4.14148236e-01
  4.23070686e-01  4.30324484e-01  4.33526702e-01  4.38425623e-01
  4.48247826e-01  4.54853207e-01  4.62128533e-01  4.72180253e-01
  4.74547022e-01  4.76856133e-01  4.80832850e-01  4.87086828e-01
  4.91426156e-01  4.98952971e-01  5.05048291e-01  5.18328117e-01
  5.23218117e-01  5.31190681e-01  5.33312139e-01  5.55269696e-01
  5.61245266e-01  5.70151984e-01  5.73051320e-01  5.85906890e-01
  5.89851629e-01  5.96791986e-01  6.01454594e-01  6.05739695e-01
  6.07402750e-01  6.13258727e-01  6.17342619e-01  6.18836920e-01
  6.28547445e-01  6.35143202e-01  6.37881013e-01  6.60735541e-01
  6.63189412e-01  6.88375813e-01  7.04812014e-01  7.09212842e-01
  7.12724582e-01  7.15425761e-01  7.29351524e-01  7.60553116e-01
  8.12387894e-01  8.14357783e-01  8.32246911e-01  8.33435897e-01
  8.36692024e-01  8.39931166e-01  8.46143858e-01  8.48788271e-01
  8.55095311e-01  8.63240706e-01  8.66187430e-01  8.74385777e-01
  8.78133094e-01  8.79277185e-01  9.22720246e-01  9.27141377e-01
  9.28618540e-01  9.30271380e-01  9.33195686e-01  9.36941222e-01
  9.45450670e-01  9.49012847e-01  9.55732340e-01  9.64538865e-01
  9.92044198e-01  1.00570555e+00  1.00900764e+00  1.01940858e+00
  1.03847346e+00  1.04330672e+00  1.05170919e+00  1.05456658e+00
  1.05995513e+00  1.08226094e+00  1.09627106e+00  1.10251121e+00
  1.10816468e+00  1.11112170e+00  1.11396617e+00  1.11919295e+00
  1.13534739e+00  1.15009289e+00  1.16207845e+00  1.18273458e+00
  1.18860607e+00  1.19826981e+00  1.20149811e+00  1.20501214e+00
  1.20871840e+00  1.20994331e+00  1.21260478e+00  1.21682962e+00
  1.22277247e+00  1.24409858e+00  1.24557124e+00  1.24790257e+00
  1.26274220e+00  1.26365358e+00  1.27221698e+00  1.27699279e+00
  1.29565333e+00  1.30986417e+00  1.32252335e+00  1.32865554e+00
  1.36288215e+00  1.38807294e+00  1.40551960e+00  1.42038302e+00
  1.42738951e+00  1.42994916e+00  1.43152871e+00  1.43256041e+00
  1.44255580e+00  1.44613066e+00  1.45081571e+00  1.45178728e+00
  1.45484325e+00  1.45770116e+00  1.47047483e+00  1.47312887e+00
  1.47574977e+00  1.48320756e+00  1.49036976e+00  1.49222115e+00
  1.49570480e+00  1.49875361e+00  1.49995732e+00  1.50973004e+00
  1.51554056e+00  1.51846485e+00  1.52104646e+00  1.53045616e+00
  1.53223778e+00  1.53826166e+00  1.54079322e+00  1.54434277e+00
  1.54705892e+00  1.54908776e+00  1.55284792e+00  1.55836712e+00
  1.56712154e+00  1.57260151e+00  1.57519763e+00  1.58485163e+00
  1.58617056e+00  1.59073167e+00  1.59512106e+00  1.60015247e+00
  1.60252057e+00  1.60543325e+00  1.61210823e+00  1.62212289e+00
  1.62443904e+00  1.63608060e+00  1.64309923e+00  1.64677508e+00
  1.65127480e+00  1.65850692e+00  1.67553308e+00  1.68530135e+00
  1.69887954e+00  1.70445454e+00  1.72393339e+00  1.74003231e+00
  1.74820876e+00  1.75747839e+00  1.77504564e+00  1.77843618e+00
  1.78928508e+00  1.79735855e+00  1.80348565e+00  1.80954880e+00
  1.82228525e+00  1.82850469e+00  1.83760626e+00  1.85509264e+00
  1.87461175e+00  1.88059426e+00  1.89994346e+00  1.93429688e+00
  1.93900182e+00  1.95691972e+00  1.96858790e+00  1.98653637e+00
  2.01325138e+00  2.02989856e+00  2.03516806e+00  2.04486043e+00
  2.04981184e+00  2.05432707e+00  2.06012526e+00  2.06237993e+00
  2.07000501e+00  2.08171775e+00  2.08219194e+00  2.09043490e+00
  2.09819381e+00  2.10254685e+00  2.10467467e+00  2.11503424e+00
  2.11655529e+00  2.12067016e+00  2.12513146e+00  2.14189222e+00
  2.14649453e+00  2.15659820e+00  2.16054582e+00  2.17219119e+00
  2.17655718e+00  2.19463071e+00  2.19681771e+00  2.20112337e+00
  2.20403099e+00  2.20640926e+00  2.21557349e+00  2.23396503e+00
  2.25124165e+00  2.25534603e+00  2.31029987e+00  2.31540055e+00
  2.33106654e+00  2.33631733e+00  2.34710594e+00  2.35087856e+00
  2.35612535e+00  2.35863181e+00  2.36814101e+00  2.37519073e+00
  2.38036441e+00  2.38730767e+00  2.48518338e+00  2.49612033e+00
  2.50003299e+00  2.50222401e+00  2.50565113e+00  2.50803958e+00
  2.52574294e+00  2.52863681e+00  2.54031686e+00  2.54884538e+00
  2.60110523e+00  2.60356546e+00  2.60636109e+00  2.61323463e+00
  2.61867875e+00  2.62327039e+00  2.63295783e+00  2.63584775e+00
  2.72365214e+00  2.72478012e+00  2.72970941e+00  2.73513820e+00
  2.80587016e+00  2.83038154e+00  2.83698248e+00  2.84076592e+00
  2.84461239e+00  2.85303759e+00  2.87084609e+00  2.88245976e+00
  2.90748497e+00  2.91314731e+00  2.96531221e+00  2.97287761e+00
  2.99436356e+00  3.00479934e+00  3.01008120e+00  3.01106072e+00
  3.01386305e+00  3.03093518e+00  3.09912263e+00  3.10159978e+00
  3.10331827e+00  3.10573036e+00  3.10779928e+00  3.11172119e+00
  3.11482996e+00  3.11657253e+00  3.12234981e+00  3.13149784e+00
  3.27658820e+00  3.27872084e+00  3.27930612e+00  3.28124914e+00
  3.28328421e+00  3.28499252e+00  3.29809206e+00  3.30042783e+00
  3.31662344e+00  3.31951612e+00  3.32178468e+00  3.33054766e+00
  3.37512149e+00  3.40533063e+00  3.55082953e+00  3.55250072e+00
  3.55452544e+00  3.55599462e+00  3.55807558e+00  3.56032790e+00
  3.56171093e+00  3.56344992e+00  3.56644238e+00  3.56944710e+00
  3.57237066e+00  3.57345625e+00  3.66106039e+00  3.66371651e+00
  3.66634172e+00  3.66852773e+00  3.67281054e+00  3.67373478e+00
  3.67528276e+00  3.67714489e+00  3.67820029e+00  3.68063663e+00
  3.68337786e+00  3.68775583e+00  3.78805957e+00  3.80376643e+00
  3.80981007e+00  3.81972672e+00  3.83776862e+00  3.85549646e+00
  3.85835813e+00  3.86053289e+00  3.86101759e+00  3.86161152e+00
  3.86260483e+00  3.86473980e+00  3.86797263e+00  3.88169007e+00
  3.88926658e+00  3.89597663e+00  3.89903202e+00  3.91726518e+00
  3.93830441e+00  3.98157585e+00  3.98990313e+00  4.00105067e+00
  4.09988942e+00  4.10086015e+00  4.10204695e+00  4.10270025e+00
  4.10365746e+00  4.10510400e+00  4.10725491e+00  4.10846331e+00
  4.11118873e+00  4.11426170e+00  4.11669788e+00  4.11868419e+00
  4.72679087e+00  4.73210514e+00  4.75894836e+00  4.76064387e+00
  4.76159824e+00  4.76818021e+00  4.77117619e+00  4.82167644e+00
  4.84221939e+00  4.86915368e+00  4.87811887e+00  4.87993830e+00
  4.88390020e+00  4.88691610e+00  4.89232992e+00  4.89576523e+00
  4.89844797e+00  4.98797161e+00  4.99317576e+00  5.00062723e+00
  5.01049433e+00  5.04108877e+00  5.06777681e+00  5.07171467e+00
  5.07399792e+00  5.07847399e+00  5.17526349e+00  5.17563899e+00
  5.17893083e+00  5.18024415e+00  5.18246860e+00  5.18616833e+00
  5.18880728e+00  5.18997629e+00  5.30818254e+00  5.31091976e+00
  5.31436725e+00  5.31704047e+00  5.32013726e+00  5.32123265e+00
  5.32354950e+00  5.32709086e+00  5.58986472e+00  5.59774797e+00
  5.61443854e+00  5.62476058e+00  6.17644629e+00  6.20354308e+00
  6.20659342e+00  6.22018171e+00  6.23108684e+00  6.23302610e+00
  6.30038701e+00  6.30736126e+00  6.32012563e+00  6.34284637e+00
  6.34581080e+00  6.35946696e+00  6.42552345e+00  6.48656578e+00
  6.59765833e+00  6.60299028e+00  6.63222222e+00  6.65817665e+00
  9.46659368e+00  9.50425569e+00  9.50491376e+00  9.50516022e+00
  9.50554724e+00  9.50562855e+00  9.50623449e+00  9.50654889e+00
  9.50768923e+00  9.50870252e+00  9.50932128e+00  9.51011648e+00
  9.51043031e+00  9.51424099e+00  9.51451274e+00  9.51664847e+00
  9.52103256e+00  9.52261188e+00  9.53020049e+00  9.65685826e+00
  9.79958946e+00  9.80202529e+00  9.85709103e+00  9.86896044e+00
  9.92439575e+00  9.93518821e+00  9.94075489e+00  9.94636872e+00
  9.96189437e+00  9.96242790e+00  9.97425917e+00  9.99336607e+00
  9.99539275e+00  1.00025113e+01  1.00490562e+01  1.00672815e+01
  1.02235818e+01  1.02358975e+01  1.65350399e+01  1.65421952e+01
  1.65541795e+01  1.66226546e+01  1.66400297e+01  1.68177281e+01
  2.46336597e+01  2.47212446e+01  4.04728451e+01  4.04767773e+01
  4.04917871e+01  4.04962404e+01  6.79558237e+01  6.80963066e+01
  6.82044297e+01  6.82061689e+01  6.83103398e+01  6.83178519e+01
  1.05095138e+02  1.05105094e+02  1.05107945e+02  1.05175251e+02
  1.05193351e+02  1.05329328e+02  2.57919458e+02  2.58002265e+02
  2.97176321e+02  2.97294736e+02  2.97384921e+02  2.97386406e+02
  2.97474199e+02  2.97481668e+02  1.34010367e+03  1.34022618e+03
  1.34031926e+03  1.34032082e+03  1.34041134e+03  1.34041961e+03
  1.65890756e+03  1.65899455e+03]
  beta  mo_energy =
[-2.55668481e+02 -2.55668373e+02 -8.84267076e+01 -8.84266966e+01
 -8.84264585e+01 -8.84264476e+01 -8.84226404e+01 -8.84226016e+01
 -2.87147240e+01 -2.87146035e+01 -2.42594312e+01 -2.42593557e+01
 -2.42593313e+01 -2.42593208e+01 -2.42592465e+01 -2.42592174e+01
 -1.00230405e+01 -1.00229344e+01 -1.00228245e+01 -1.00223568e+01
 -7.79000497e+00 -7.78998307e+00 -7.78972545e+00 -7.78971312e+00
 -7.78492528e+00 -7.78486973e+00 -5.76156729e+00 -5.76154740e+00
 -5.76124635e+00 -5.76123340e+00 -5.75992520e+00 -5.75990113e+00
 -5.75979534e+00 -5.75977625e+00 -5.75966569e+00 -5.75965313e+00
 -5.75954741e+00 -5.75953635e+00 -5.75557830e+00 -5.75552136e+00
 -5.75546607e+00 -5.75541047e+00 -5.75530869e+00 -5.75525919e+00
 -2.46018708e+00 -2.45956316e+00 -1.26925837e+00 -1.26682747e+00
 -1.26495996e+00 -1.26318033e+00 -1.26223640e+00 -1.26115358e+00
 -7.83690531e-01 -7.83611142e-01 -7.81880554e-01 -7.81156931e-01
 -6.50056336e-01 -6.40933275e-01 -6.30844286e-01 -6.29363455e-01
 -6.29016438e-01 -6.28821267e-01 -4.65377071e-01 -4.65351809e-01
 -4.64142175e-01 -4.63191411e-01 -4.63095008e-01 -4.62369020e-01
 -4.62111661e-01 -4.61743881e-01 -3.97376269e-01 -3.97000403e-01
 -3.94881588e-01 -3.94543610e-01 -2.89935815e-01 -2.86997057e-01
 -2.81544688e-01 -2.70642010e-01 -2.67855557e-01 -2.67633117e-01
 -2.65846461e-01 -2.58124660e-01 -2.56803916e-01 -2.55836744e-01
 -2.54685323e-01 -2.53901003e-01 -2.53012316e-01 -2.52462218e-01
 -3.94295234e-02 -3.63644822e-02 -3.33123546e-02 -3.08832146e-02
 -1.00521238e-02  5.60751516e-03  2.72265939e-02  2.81699011e-02
  4.39384556e-02  5.09596453e-02  5.27048336e-02  5.52236060e-02
  5.72524480e-02  5.84917574e-02  6.12795821e-02  6.27118810e-02
  8.20296591e-02  1.03654340e-01  1.20838313e-01  1.24879283e-01
  1.30715919e-01  1.35017906e-01  1.37675445e-01  1.39259333e-01
  1.47484685e-01  1.49638163e-01  1.52784466e-01  1.55195181e-01
  1.58130116e-01  1.68218526e-01  1.72656566e-01  1.79307774e-01
  1.80395627e-01  1.89678139e-01  1.91980357e-01  1.96704448e-01
  1.97592244e-01  2.03683577e-01  2.04708941e-01  2.10461545e-01
  2.15428874e-01  2.23924424e-01  2.27452951e-01  2.30755632e-01
  2.35995111e-01  2.40153146e-01  2.46928178e-01  2.50633794e-01
  2.51122983e-01  2.58883024e-01  2.64787917e-01  2.73264938e-01
  2.76975459e-01  2.83771658e-01  2.84739322e-01  2.92658320e-01
  3.00642716e-01  3.00723588e-01  3.07029573e-01  3.09547602e-01
  3.12563236e-01  3.13450825e-01  3.23478784e-01  3.24508548e-01
  3.32500778e-01  3.36744195e-01  3.50314241e-01  3.76137798e-01
  3.77051250e-01  3.79942350e-01  3.85736880e-01  3.97867806e-01
  3.99146529e-01  3.99821689e-01  4.09718921e-01  4.14148236e-01
  4.23070686e-01  4.30324484e-01  4.33526702e-01  4.38425623e-01
  4.48247826e-01  4.54853207e-01  4.62128533e-01  4.72180253e-01
  4.74547022e-01  4.76856133e-01  4.80832850e-01  4.87086828e-01
  4.91426156e-01  4.98952971e-01  5.05048291e-01  5.18328117e-01
  5.23218117e-01  5.31190681e-01  5.33312139e-01  5.55269696e-01
  5.61245266e-01  5.70151984e-01  5.73051320e-01  5.85906890e-01
  5.89851629e-01  5.96791986e-01  6.01454594e-01  6.05739695e-01
  6.07402750e-01  6.13258727e-01  6.17342619e-01  6.18836920e-01
  6.28547445e-01  6.35143202e-01  6.37881013e-01  6.60735541e-01
  6.63189412e-01  6.88375813e-01  7.04812014e-01  7.09212842e-01
  7.12724582e-01  7.15425761e-01  7.29351524e-01  7.60553116e-01
  8.12387894e-01  8.14357783e-01  8.32246911e-01  8.33435897e-01
  8.36692024e-01  8.39931166e-01  8.46143858e-01  8.48788271e-01
  8.55095311e-01  8.63240706e-01  8.66187430e-01  8.74385777e-01
  8.78133094e-01  8.79277185e-01  9.22720246e-01  9.27141377e-01
  9.28618540e-01  9.30271380e-01  9.33195686e-01  9.36941222e-01
  9.45450670e-01  9.49012847e-01  9.55732340e-01  9.64538865e-01
  9.92044198e-01  1.00570555e+00  1.00900764e+00  1.01940858e+00
  1.03847346e+00  1.04330672e+00  1.05170919e+00  1.05456658e+00
  1.05995513e+00  1.08226094e+00  1.09627106e+00  1.10251121e+00
  1.10816468e+00  1.11112170e+00  1.11396617e+00  1.11919295e+00
  1.13534739e+00  1.15009289e+00  1.16207845e+00  1.18273458e+00
  1.18860607e+00  1.19826981e+00  1.20149811e+00  1.20501214e+00
  1.20871840e+00  1.20994331e+00  1.21260478e+00  1.21682962e+00
  1.22277247e+00  1.24409858e+00  1.24557124e+00  1.24790257e+00
  1.26274220e+00  1.26365358e+00  1.27221698e+00  1.27699279e+00
  1.29565333e+00  1.30986417e+00  1.32252335e+00  1.32865554e+00
  1.36288215e+00  1.38807294e+00  1.40551960e+00  1.42038302e+00
  1.42738951e+00  1.42994916e+00  1.43152871e+00  1.43256041e+00
  1.44255580e+00  1.44613066e+00  1.45081571e+00  1.45178728e+00
  1.45484325e+00  1.45770116e+00  1.47047483e+00  1.47312887e+00
  1.47574977e+00  1.48320756e+00  1.49036976e+00  1.49222115e+00
  1.49570480e+00  1.49875361e+00  1.49995732e+00  1.50973004e+00
  1.51554056e+00  1.51846485e+00  1.52104646e+00  1.53045616e+00
  1.53223778e+00  1.53826166e+00  1.54079322e+00  1.54434277e+00
  1.54705892e+00  1.54908776e+00  1.55284792e+00  1.55836712e+00
  1.56712154e+00  1.57260151e+00  1.57519763e+00  1.58485163e+00
  1.58617056e+00  1.59073167e+00  1.59512106e+00  1.60015247e+00
  1.60252057e+00  1.60543325e+00  1.61210823e+00  1.62212289e+00
  1.62443904e+00  1.63608060e+00  1.64309923e+00  1.64677508e+00
  1.65127480e+00  1.65850692e+00  1.67553308e+00  1.68530135e+00
  1.69887954e+00  1.70445454e+00  1.72393339e+00  1.74003231e+00
  1.74820876e+00  1.75747839e+00  1.77504564e+00  1.77843618e+00
  1.78928508e+00  1.79735855e+00  1.80348565e+00  1.80954880e+00
  1.82228525e+00  1.82850469e+00  1.83760626e+00  1.85509264e+00
  1.87461175e+00  1.88059426e+00  1.89994346e+00  1.93429688e+00
  1.93900182e+00  1.95691972e+00  1.96858790e+00  1.98653637e+00
  2.01325138e+00  2.02989856e+00  2.03516806e+00  2.04486043e+00
  2.04981184e+00  2.05432707e+00  2.06012526e+00  2.06237993e+00
  2.07000501e+00  2.08171775e+00  2.08219194e+00  2.09043490e+00
  2.09819381e+00  2.10254685e+00  2.10467467e+00  2.11503424e+00
  2.11655529e+00  2.12067016e+00  2.12513146e+00  2.14189222e+00
  2.14649453e+00  2.15659820e+00  2.16054582e+00  2.17219119e+00
  2.17655718e+00  2.19463071e+00  2.19681771e+00  2.20112337e+00
  2.20403099e+00  2.20640926e+00  2.21557349e+00  2.23396503e+00
  2.25124165e+00  2.25534603e+00  2.31029987e+00  2.31540055e+00
  2.33106654e+00  2.33631733e+00  2.34710594e+00  2.35087856e+00
  2.35612535e+00  2.35863181e+00  2.36814101e+00  2.37519073e+00
  2.38036441e+00  2.38730767e+00  2.48518338e+00  2.49612033e+00
  2.50003299e+00  2.50222401e+00  2.50565113e+00  2.50803958e+00
  2.52574294e+00  2.52863681e+00  2.54031686e+00  2.54884538e+00
  2.60110523e+00  2.60356546e+00  2.60636109e+00  2.61323463e+00
  2.61867875e+00  2.62327039e+00  2.63295783e+00  2.63584775e+00
  2.72365214e+00  2.72478012e+00  2.72970941e+00  2.73513820e+00
  2.80587016e+00  2.83038154e+00  2.83698248e+00  2.84076592e+00
  2.84461239e+00  2.85303759e+00  2.87084609e+00  2.88245976e+00
  2.90748497e+00  2.91314731e+00  2.96531221e+00  2.97287761e+00
  2.99436356e+00  3.00479934e+00  3.01008120e+00  3.01106072e+00
  3.01386305e+00  3.03093518e+00  3.09912263e+00  3.10159978e+00
  3.10331827e+00  3.10573036e+00  3.10779928e+00  3.11172119e+00
  3.11482996e+00  3.11657253e+00  3.12234981e+00  3.13149784e+00
  3.27658820e+00  3.27872084e+00  3.27930612e+00  3.28124914e+00
  3.28328421e+00  3.28499252e+00  3.29809206e+00  3.30042783e+00
  3.31662344e+00  3.31951612e+00  3.32178468e+00  3.33054766e+00
  3.37512149e+00  3.40533063e+00  3.55082953e+00  3.55250072e+00
  3.55452544e+00  3.55599462e+00  3.55807558e+00  3.56032790e+00
  3.56171093e+00  3.56344992e+00  3.56644238e+00  3.56944710e+00
  3.57237066e+00  3.57345625e+00  3.66106039e+00  3.66371651e+00
  3.66634172e+00  3.66852773e+00  3.67281054e+00  3.67373478e+00
  3.67528276e+00  3.67714489e+00  3.67820029e+00  3.68063663e+00
  3.68337786e+00  3.68775583e+00  3.78805957e+00  3.80376643e+00
  3.80981007e+00  3.81972672e+00  3.83776862e+00  3.85549646e+00
  3.85835813e+00  3.86053289e+00  3.86101759e+00  3.86161152e+00
  3.86260483e+00  3.86473980e+00  3.86797263e+00  3.88169007e+00
  3.88926658e+00  3.89597663e+00  3.89903202e+00  3.91726518e+00
  3.93830441e+00  3.98157585e+00  3.98990313e+00  4.00105067e+00
  4.09988942e+00  4.10086015e+00  4.10204695e+00  4.10270025e+00
  4.10365746e+00  4.10510400e+00  4.10725491e+00  4.10846331e+00
  4.11118873e+00  4.11426170e+00  4.11669788e+00  4.11868419e+00
  4.72679087e+00  4.73210514e+00  4.75894836e+00  4.76064387e+00
  4.76159824e+00  4.76818021e+00  4.77117619e+00  4.82167644e+00
  4.84221939e+00  4.86915368e+00  4.87811887e+00  4.87993830e+00
  4.88390020e+00  4.88691610e+00  4.89232992e+00  4.89576523e+00
  4.89844797e+00  4.98797161e+00  4.99317576e+00  5.00062723e+00
  5.01049433e+00  5.04108877e+00  5.06777681e+00  5.07171467e+00
  5.07399792e+00  5.07847399e+00  5.17526349e+00  5.17563899e+00
  5.17893083e+00  5.18024415e+00  5.18246860e+00  5.18616833e+00
  5.18880728e+00  5.18997629e+00  5.30818254e+00  5.31091976e+00
  5.31436725e+00  5.31704047e+00  5.32013726e+00  5.32123265e+00
  5.32354950e+00  5.32709086e+00  5.58986472e+00  5.59774797e+00
  5.61443854e+00  5.62476058e+00  6.17644629e+00  6.20354308e+00
  6.20659342e+00  6.22018171e+00  6.23108684e+00  6.23302610e+00
  6.30038701e+00  6.30736126e+00  6.32012563e+00  6.34284637e+00
  6.34581080e+00  6.35946696e+00  6.42552345e+00  6.48656578e+00
  6.59765833e+00  6.60299028e+00  6.63222222e+00  6.65817665e+00
  9.46659368e+00  9.50425569e+00  9.50491376e+00  9.50516022e+00
  9.50554724e+00  9.50562855e+00  9.50623449e+00  9.50654889e+00
  9.50768923e+00  9.50870252e+00  9.50932128e+00  9.51011648e+00
  9.51043031e+00  9.51424099e+00  9.51451274e+00  9.51664847e+00
  9.52103256e+00  9.52261188e+00  9.53020049e+00  9.65685826e+00
  9.79958946e+00  9.80202529e+00  9.85709103e+00  9.86896044e+00
  9.92439575e+00  9.93518821e+00  9.94075489e+00  9.94636872e+00
  9.96189437e+00  9.96242790e+00  9.97425917e+00  9.99336607e+00
  9.99539275e+00  1.00025113e+01  1.00490562e+01  1.00672815e+01
  1.02235818e+01  1.02358975e+01  1.65350399e+01  1.65421952e+01
  1.65541795e+01  1.66226546e+01  1.66400297e+01  1.68177281e+01
  2.46336597e+01  2.47212446e+01  4.04728451e+01  4.04767773e+01
  4.04917871e+01  4.04962404e+01  6.79558237e+01  6.80963066e+01
  6.82044297e+01  6.82061689e+01  6.83103398e+01  6.83178519e+01
  1.05095138e+02  1.05105094e+02  1.05107945e+02  1.05175251e+02
  1.05193351e+02  1.05329328e+02  2.57919458e+02  2.58002265e+02
  2.97176321e+02  2.97294736e+02  2.97384921e+02  2.97386406e+02
  2.97474199e+02  2.97481668e+02  1.34010367e+03  1.34022618e+03
  1.34031926e+03  1.34032082e+03  1.34041134e+03  1.34041961e+03
  1.65890756e+03  1.65899455e+03]
multiplicity <S^2> = 30  2S+1 = 11
nelec by numeric integration = [97.99979204 87.99997619]
    CPU time for vxc    132.21 sec, wall time      7.56 sec
    CPU time for vj and vk    298.02 sec, wall time     16.55 sec
E1 = -11480.03082692986  Ecoul = 4339.761346145296  Exc = -287.2384389082123
cycle= 1 E= -5068.5760056096  delta_E=   32  |g|= 7.19  |ddm|= 24.2
    CPU time for cycle= 1    446.80 sec, wall time     24.96 sec
diis-norm(errvec)=10.1664
diis-c [-103.35549858    1.        ]
  alpha nocc = 98  HOMO = -0.844586287638222  LUMO = -0.833113701482375
  beta  nocc = 88  HOMO = -1.00826011171985  LUMO = -0.969046520047038

WARN: system HOMO -0.835285697981078 >= system LUMO -0.969046520047038

  alpha mo_energy =
[-2.64434413e+02 -2.64417557e+02 -8.87611335e+01 -8.87580935e+01
 -8.80654273e+01 -8.80378789e+01 -8.80354980e+01 -8.80109984e+01
 -3.70754135e+01 -3.70587609e+01 -3.26987737e+01 -3.26971509e+01
 -3.26968588e+01 -3.26820782e+01 -3.26804553e+01 -3.26801716e+01
 -9.19893884e+00 -9.14624785e+00 -9.11965799e+00 -9.07546245e+00
 -8.70816384e+00 -8.69224333e+00 -8.22326615e+00 -8.21940859e+00
 -7.49758337e+00 -7.46981164e+00 -7.46816228e+00 -7.44421565e+00
 -7.40570994e+00 -7.39308187e+00 -7.39228017e+00 -7.38921183e+00
 -7.37684874e+00 -7.37610008e+00 -6.17586952e+00 -6.17431247e+00
 -6.17218704e+00 -6.17085075e+00 -6.16553759e+00 -6.16203497e+00
 -5.46284837e+00 -5.45681544e+00 -5.45123298e+00 -5.43491166e+00
 -5.43276938e+00 -5.42910137e+00 -5.42724344e+00 -5.42353059e+00
 -5.42174338e+00 -5.40861058e+00 -5.40308792e+00 -5.39765936e+00
 -5.38279348e+00 -5.37875204e+00 -5.37820235e+00 -5.36721725e+00
 -5.36709335e+00 -5.36636703e+00 -5.36233179e+00 -5.36181674e+00
 -5.35088479e+00 -5.35075803e+00 -2.92760342e+00 -2.73356483e+00
 -2.38089042e+00 -2.31259943e+00 -2.28777669e+00 -2.26404991e+00
 -2.22755572e+00 -2.18143233e+00 -1.81352225e+00 -1.74413972e+00
 -1.70384563e+00 -1.67748000e+00 -1.60910525e+00 -1.60627165e+00
 -1.56945365e+00 -1.55796750e+00 -1.54498689e+00 -1.50766731e+00
 -1.45417602e+00 -1.25986520e+00 -1.09789239e+00 -1.09598683e+00
 -1.09199101e+00 -1.05416894e+00 -1.04542674e+00 -1.01155154e+00
 -9.73923269e-01 -9.61020322e-01 -9.43257503e-01 -9.19928869e-01
 -9.05777742e-01 -8.96177467e-01 -8.90623350e-01 -8.81377855e-01
 -8.67890764e-01 -8.44586288e-01 -8.33113701e-01 -8.11407833e-01
 -8.04433093e-01 -7.89477238e-01 -7.49947959e-01 -7.11279985e-01
 -6.84480686e-01 -6.67005052e-01 -5.75644225e-01 -5.23904985e-01
 -4.55585771e-01 -4.29921244e-01 -4.17829616e-01 -4.13403057e-01
 -4.05312837e-01 -4.02050035e-01 -3.66054604e-01 -3.57216590e-01
 -3.31394544e-01 -3.29499642e-01 -3.02041852e-01 -2.99211254e-01
 -2.93485616e-01 -2.77235235e-01 -2.60169840e-01 -2.42097253e-01
 -2.30900412e-01 -2.28488381e-01 -2.18415694e-01 -2.08567656e-01
 -1.98680554e-01 -1.93822664e-01 -1.75238491e-01 -1.51181845e-01
 -1.34071670e-01 -1.26453536e-01 -1.14588547e-01 -1.08155388e-01
 -9.09950050e-02 -8.31966292e-02 -6.25327654e-02 -4.50133735e-02
 -2.72394566e-02 -2.25157943e-02 -1.32296515e-02 -2.51342678e-03
  3.54135446e-03  1.10895809e-02  1.77033308e-02  3.25979568e-02
  4.17880315e-02  5.30833437e-02  6.21320881e-02  7.57740458e-02
  8.24870534e-02  9.06354769e-02  1.09736056e-01  1.26369506e-01
  1.29903196e-01  1.35338546e-01  1.55762209e-01  1.59769863e-01
  1.69239829e-01  1.74697368e-01  1.86355517e-01  2.02743606e-01
  2.08994691e-01  2.12858032e-01  2.23119580e-01  2.33373041e-01
  2.39245889e-01  2.47085295e-01  2.52403185e-01  2.59492967e-01
  2.66315477e-01  2.88177528e-01  2.94337655e-01  2.95337462e-01
  2.99698093e-01  3.02195533e-01  3.08671053e-01  3.14058695e-01
  3.21621791e-01  3.29600294e-01  3.32633537e-01  3.38149361e-01
  3.44057302e-01  3.55278436e-01  3.67181368e-01  3.72203464e-01
  3.77380045e-01  3.91051259e-01  3.93540839e-01  3.96990354e-01
  4.07332100e-01  4.11345191e-01  4.15099843e-01  4.30035852e-01
  4.34219315e-01  4.39226995e-01  4.45344838e-01  4.46892600e-01
  4.59814963e-01  4.66020304e-01  4.68967779e-01  4.75966108e-01
  4.79884555e-01  4.88862389e-01  4.94651316e-01  5.06645087e-01
  5.11906425e-01  5.19079660e-01  5.29620066e-01  5.38348665e-01
  5.52508928e-01  5.57638252e-01  5.70286317e-01  5.80266998e-01
  6.02420428e-01  6.30880994e-01  6.39838302e-01  6.53804932e-01
  6.63355657e-01  6.74241145e-01  6.88231337e-01  6.99773653e-01
  7.03386083e-01  7.13773202e-01  7.29107426e-01  7.31626461e-01
  7.42001441e-01  7.42499909e-01  7.44627954e-01  7.49262323e-01
  7.61336049e-01  7.62968669e-01  7.69570929e-01  7.74569412e-01
  7.79054702e-01  7.86941629e-01  7.92259846e-01  7.98343363e-01
  8.04450510e-01  8.16885790e-01  8.23068649e-01  8.24342309e-01
  8.29031998e-01  8.38922875e-01  8.47065844e-01  8.52201212e-01
  8.57502467e-01  8.68775969e-01  8.77517769e-01  8.81790893e-01
  8.87602623e-01  8.91145857e-01  9.04809425e-01  9.21650592e-01
  9.30327431e-01  9.38956455e-01  9.48955072e-01  9.51820303e-01
  9.61772031e-01  9.66186055e-01  9.74442417e-01  9.80803696e-01
  9.89274422e-01  9.98326729e-01  1.01177042e+00  1.02198990e+00
  1.02628286e+00  1.02733827e+00  1.03935798e+00  1.07013368e+00
  1.07950839e+00  1.08655903e+00  1.09814948e+00  1.10509445e+00
  1.10927129e+00  1.11398930e+00  1.12295928e+00  1.12833309e+00
  1.13737606e+00  1.14330863e+00  1.15369991e+00  1.16590629e+00
  1.17215143e+00  1.17532405e+00  1.18018105e+00  1.18583710e+00
  1.18706248e+00  1.20435498e+00  1.20887978e+00  1.21002918e+00
  1.21038200e+00  1.21703930e+00  1.23495133e+00  1.25077823e+00
  1.25582970e+00  1.27443407e+00  1.27866834e+00  1.28894553e+00
  1.29658937e+00  1.30508071e+00  1.32325241e+00  1.33914159e+00
  1.34159346e+00  1.34669863e+00  1.35812184e+00  1.36841101e+00
  1.37754668e+00  1.38406919e+00  1.39327101e+00  1.39767638e+00
  1.40239455e+00  1.40917273e+00  1.41635200e+00  1.42393262e+00
  1.44615953e+00  1.44722654e+00  1.45093154e+00  1.45736975e+00
  1.47232946e+00  1.47741061e+00  1.48275032e+00  1.49289970e+00
  1.51123993e+00  1.51534853e+00  1.52088902e+00  1.52939111e+00
  1.53596827e+00  1.54651013e+00  1.55155271e+00  1.56142170e+00
  1.56278024e+00  1.57600425e+00  1.58473955e+00  1.59217355e+00
  1.59957145e+00  1.60660509e+00  1.60683853e+00  1.61953102e+00
  1.63107526e+00  1.63174013e+00  1.64359856e+00  1.64790480e+00
  1.65734257e+00  1.66407578e+00  1.67383191e+00  1.68839572e+00
  1.69190725e+00  1.69523150e+00  1.71065931e+00  1.71377091e+00
  1.71618475e+00  1.72351995e+00  1.73209925e+00  1.73683358e+00
  1.74409270e+00  1.75662281e+00  1.76216480e+00  1.78048445e+00
  1.78721199e+00  1.80531765e+00  1.80908294e+00  1.81135322e+00
  1.82305467e+00  1.83169821e+00  1.83726427e+00  1.84003113e+00
  1.85262136e+00  1.86051968e+00  1.86472649e+00  1.87088499e+00
  1.88739324e+00  1.89089043e+00  1.90301966e+00  1.90654775e+00
  1.93354646e+00  1.94848994e+00  1.98438737e+00  2.01708517e+00
  2.03307880e+00  2.03814638e+00  2.05698828e+00  2.06514287e+00
  2.07590097e+00  2.09347089e+00  2.09870707e+00  2.12318653e+00
  2.15508518e+00  2.18850294e+00  2.28337229e+00  2.32298877e+00
  2.33639737e+00  2.35059356e+00  2.37057348e+00  2.37493022e+00
  2.38387171e+00  2.40201441e+00  2.41472788e+00  2.41609684e+00
  2.42835428e+00  2.44646942e+00  2.45503546e+00  2.45608186e+00
  2.47933642e+00  2.48451171e+00  2.49252911e+00  2.49529616e+00
  2.50690087e+00  2.52114625e+00  2.53222931e+00  2.53654725e+00
  2.54205442e+00  2.55314814e+00  2.57406424e+00  2.59213187e+00
  2.63002534e+00  2.66054851e+00  2.68767505e+00  2.72076144e+00
  2.72688032e+00  2.74519127e+00  2.74969851e+00  2.75807871e+00
  2.77645461e+00  2.78557247e+00  2.79253669e+00  2.80464705e+00
  2.81426565e+00  2.84175455e+00  2.84428102e+00  2.86605281e+00
  2.87488206e+00  2.88696857e+00  2.89615761e+00  2.90014466e+00
  2.91221544e+00  2.91497915e+00  2.93067230e+00  2.93749288e+00
  2.94333022e+00  2.95766466e+00  2.97038678e+00  2.98904393e+00
  2.99079678e+00  3.01863043e+00  3.07643690e+00  3.11125091e+00
  3.12522403e+00  3.14015065e+00  3.15911297e+00  3.16924503e+00
  3.17456050e+00  3.20329072e+00  3.39274487e+00  3.43094232e+00
  3.44475516e+00  3.44894288e+00  3.48117483e+00  3.48606100e+00
  3.52107879e+00  3.53705547e+00  3.55596605e+00  3.57379158e+00
  3.58328359e+00  3.62116765e+00  3.71865908e+00  3.73482265e+00
  3.75148571e+00  3.75585969e+00  3.77037153e+00  3.77625845e+00
  3.78983805e+00  3.79369296e+00  3.80124584e+00  3.80278074e+00
  3.82962964e+00  3.83501876e+00  3.95510260e+00  3.99314741e+00
  4.00094426e+00  4.00309675e+00  4.01250862e+00  4.03015341e+00
  4.03424627e+00  4.03693511e+00  4.04122456e+00  4.04376959e+00
  4.05764905e+00  4.06104693e+00  4.06457979e+00  4.07064274e+00
  4.07290516e+00  4.07792615e+00  4.08423294e+00  4.09504425e+00
  4.09734621e+00  4.10064058e+00  4.11025460e+00  4.11167599e+00
  4.11447663e+00  4.12715963e+00  4.13389167e+00  4.13578250e+00
  4.14020079e+00  4.15866958e+00  4.16144146e+00  4.17026932e+00
  4.18163631e+00  4.18865603e+00  4.20204853e+00  4.22226220e+00
  4.22760500e+00  4.23679032e+00  4.25012611e+00  4.25799350e+00
  4.27006546e+00  4.28793682e+00  4.29073864e+00  4.30204956e+00
  4.30795785e+00  4.32468337e+00  4.34005260e+00  4.34283474e+00
  4.35658977e+00  4.36377549e+00  4.39061854e+00  4.39345578e+00
  4.49045089e+00  4.52697481e+00  4.52996501e+00  4.53508796e+00
  4.54457796e+00  4.55113021e+00  4.55523985e+00  4.55811859e+00
  4.56253912e+00  4.56408337e+00  4.56795453e+00  4.57062340e+00
  4.57484644e+00  4.57733342e+00  4.57870423e+00  4.57978471e+00
  4.58054607e+00  4.58231583e+00  4.58403840e+00  4.58559010e+00
  4.58966300e+00  4.59554855e+00  4.59886740e+00  4.59925597e+00
  4.60180299e+00  4.60591396e+00  4.60776744e+00  4.61581227e+00
  4.62320722e+00  4.63335069e+00  5.18888732e+00  5.22604671e+00
  5.24538663e+00  5.28183156e+00  5.29896753e+00  5.32323226e+00
  5.33548436e+00  5.35082221e+00  5.35586835e+00  5.37006642e+00
  5.39236908e+00  5.39659289e+00  5.41604445e+00  5.44692839e+00
  5.45602511e+00  5.48546532e+00  5.50077249e+00  5.53373228e+00
  5.56040481e+00  5.59231435e+00  5.60766247e+00  5.60989067e+00
  5.64267551e+00  5.64725649e+00  5.66321049e+00  5.66644682e+00
  5.70159381e+00  5.70659895e+00  5.72802898e+00  5.74972905e+00
  5.75913503e+00  5.76699824e+00  5.79194941e+00  5.79682529e+00
  5.80875300e+00  5.82286214e+00  5.83460530e+00  5.84811147e+00
  5.85278188e+00  5.89063314e+00  5.91939506e+00  5.93261132e+00
  6.10547539e+00  6.15230688e+00  6.18987927e+00  6.21976467e+00
  6.41756830e+00  6.45138735e+00  6.46034266e+00  6.47931114e+00
  6.48292199e+00  6.50580128e+00  6.53123773e+00  6.57898891e+00
  6.78907565e+00  6.81674806e+00  6.84536113e+00  6.87204208e+00
  9.02129216e+00  9.23937416e+00  1.00375983e+01  1.00650118e+01
  1.01222660e+01  1.01969902e+01  1.02125223e+01  1.02586642e+01
  1.02801068e+01  1.03188622e+01  1.03434263e+01  1.04853468e+01
  1.73649089e+01  1.74621369e+01  4.12606501e+01  4.13135218e+01
  4.13594039e+01  4.13987886e+01  6.75689847e+01  6.77764652e+01
  6.85354551e+01  6.85613176e+01  6.85989873e+01  6.86656904e+01
  9.67866738e+01  9.67982312e+01  9.68103240e+01  9.68694448e+01
  9.68955800e+01  9.70232071e+01  2.49360101e+02  2.49444632e+02
  2.96828718e+02  2.97006323e+02  2.97745815e+02  2.97771638e+02
  2.97802161e+02  2.97860763e+02  1.33976861e+03  1.33995222e+03
  1.34068903e+03  1.34071484e+03  1.34074676e+03  1.34080665e+03
  1.65016147e+03  1.65024942e+03]
  beta  mo_energy =
[-2.64434320e+02 -2.64417451e+02 -8.87604326e+01 -8.87574337e+01
 -8.80626700e+01 -8.80351381e+01 -8.80327648e+01 -8.80082311e+01
 -3.70752538e+01 -3.70585942e+01 -3.26986273e+01 -3.26970038e+01
 -3.26966590e+01 -3.26819140e+01 -3.26803013e+01 -3.26799618e+01
 -9.18779549e+00 -9.13447494e+00 -9.10740744e+00 -9.06279825e+00
 -8.70749417e+00 -8.69155357e+00 -8.22254779e+00 -8.21872801e+00
 -7.49477254e+00 -7.46701280e+00 -7.46537014e+00 -7.44138678e+00
 -7.40510469e+00 -7.39248284e+00 -7.39149622e+00 -7.38856969e+00
 -7.37623844e+00 -7.37528997e+00 -6.17482534e+00 -6.17367319e+00
 -6.17119513e+00 -6.17025735e+00 -6.16456798e+00 -6.16112370e+00
 -5.45873729e+00 -5.45262110e+00 -5.44871705e+00 -5.43087794e+00
 -5.42876945e+00 -5.42486558e+00 -5.42287060e+00 -5.42102943e+00
 -5.41934437e+00 -5.40464506e+00 -5.39856796e+00 -5.39522298e+00
 -5.38220764e+00 -5.37809725e+00 -5.37761628e+00 -5.36659833e+00
 -5.36636520e+00 -5.36575421e+00 -5.36165491e+00 -5.36120117e+00
 -5.35025684e+00 -5.35000767e+00 -2.92642685e+00 -2.73208443e+00
 -2.37888072e+00 -2.30973329e+00 -2.28519405e+00 -2.26159828e+00
 -2.22514740e+00 -2.17872329e+00 -1.80957587e+00 -1.74147187e+00
 -1.70003868e+00 -1.67445777e+00 -1.60613673e+00 -1.60171131e+00
 -1.56530631e+00 -1.55357170e+00 -1.53963039e+00 -1.50428984e+00
 -1.44973062e+00 -1.25589385e+00 -1.09316461e+00 -1.09194334e+00
 -1.08772787e+00 -1.05021801e+00 -1.03942288e+00 -1.00826011e+00
 -9.69046520e-01 -9.56333111e-01 -9.36114740e-01 -9.16620041e-01
 -9.02613823e-01 -8.91884706e-01 -8.85997389e-01 -8.77260697e-01
 -8.64298115e-01 -8.35285698e-01 -8.28803576e-01 -8.04630451e-01
 -7.95771593e-01 -7.81547234e-01 -7.39913460e-01 -7.02591358e-01
 -6.73706806e-01 -6.63981422e-01 -5.66163526e-01 -5.14673067e-01
 -4.34325779e-01 -4.12394926e-01 -4.08210725e-01 -4.01083404e-01
 -3.92751131e-01 -3.79128405e-01 -3.51660850e-01 -3.42994881e-01
 -3.21849882e-01 -3.14846835e-01 -2.91368453e-01 -2.87528984e-01
 -2.79922698e-01 -2.65720848e-01 -2.43862054e-01 -2.27264779e-01
 -2.23261457e-01 -2.14073729e-01 -2.06641217e-01 -1.94154796e-01
 -1.83697301e-01 -1.78952469e-01 -1.57846998e-01 -1.35663336e-01
 -1.15920905e-01 -1.10566193e-01 -9.89942777e-02 -9.50808941e-02
 -7.21412711e-02 -6.24855166e-02 -4.34798345e-02 -2.76884894e-02
 -9.35444652e-03 -2.43715678e-03  5.05309186e-03  1.61958919e-02
  2.13258938e-02  3.23597846e-02  3.67672863e-02  4.97495943e-02
  6.12427294e-02  7.11267952e-02  7.91485907e-02  9.34180151e-02
  9.78832287e-02  1.10338402e-01  1.26738636e-01  1.41445414e-01
  1.46689888e-01  1.53461188e-01  1.75201039e-01  1.80672607e-01
  1.91144243e-01  1.98450234e-01  2.14201138e-01  2.29527699e-01
  2.33625757e-01  2.38179566e-01  2.45153832e-01  2.56665480e-01
  2.61794984e-01  2.72425052e-01  2.75853361e-01  2.82021969e-01
  2.90288776e-01  3.14480370e-01  3.15587317e-01  3.19437156e-01
  3.23041755e-01  3.31549093e-01  3.37395082e-01  3.42090869e-01
  3.44738245e-01  3.52122676e-01  3.56089693e-01  3.65523492e-01
  3.67689483e-01  3.79626888e-01  3.89823750e-01  3.98780412e-01
  4.02822781e-01  4.15598091e-01  4.17101152e-01  4.24191037e-01
  4.28684417e-01  4.35436234e-01  4.40982607e-01  4.53239119e-01
  4.54688624e-01  4.60889217e-01  4.66360676e-01  4.66921774e-01
  4.81725754e-01  4.87491887e-01  4.94158231e-01  4.99858594e-01
  5.00765716e-01  5.13410249e-01  5.14314143e-01  5.27630741e-01
  5.31907797e-01  5.39112821e-01  5.49837293e-01  5.59215614e-01
  5.75455175e-01  5.82058843e-01  5.88985041e-01  6.01679744e-01
  6.21285976e-01  6.52865358e-01  6.58430986e-01  6.77330255e-01
  6.82144491e-01  6.93655925e-01  7.08750187e-01  7.14046522e-01
  7.28541628e-01  7.34174595e-01  7.46239584e-01  7.53446916e-01
  7.59021707e-01  7.65645606e-01  7.70695417e-01  7.72282820e-01
  7.84909115e-01  7.93386253e-01  7.94989957e-01  8.01252458e-01
  8.03328821e-01  8.09892930e-01  8.15960998e-01  8.25575059e-01
  8.30129077e-01  8.40891688e-01  8.45807068e-01  8.48753020e-01
  8.52779681e-01  8.63947746e-01  8.66712142e-01  8.77956945e-01
  8.83557703e-01  8.89574818e-01  8.96763298e-01  9.00458018e-01
  9.09011469e-01  9.13487870e-01  9.26446755e-01  9.38897109e-01
  9.52512126e-01  9.57926090e-01  9.65369994e-01  9.72177072e-01
  9.76267364e-01  9.82378100e-01  9.93877634e-01  1.00403726e+00
  1.00641468e+00  1.02078603e+00  1.02843046e+00  1.03134105e+00
  1.03854904e+00  1.04691964e+00  1.06229695e+00  1.09160145e+00
  1.09853331e+00  1.10091057e+00  1.11165271e+00  1.12379672e+00
  1.12931195e+00  1.13603780e+00  1.14152165e+00  1.14600824e+00
  1.16416152e+00  1.17039219e+00  1.17707999e+00  1.18694665e+00
  1.19600387e+00  1.20183358e+00  1.20223060e+00  1.20730706e+00
  1.20890919e+00  1.22825277e+00  1.23127124e+00  1.23233066e+00
  1.23820788e+00  1.24064570e+00  1.25648325e+00  1.27114160e+00
  1.27914779e+00  1.29139169e+00  1.29899539e+00  1.30828444e+00
  1.32117183e+00  1.32810386e+00  1.34062983e+00  1.35112036e+00
  1.36250711e+00  1.36458357e+00  1.38801140e+00  1.39089365e+00
  1.39864052e+00  1.40491726e+00  1.41208506e+00  1.41762531e+00
  1.42152222e+00  1.42673109e+00  1.43620991e+00  1.44187995e+00
  1.46407234e+00  1.46767392e+00  1.46818842e+00  1.47514090e+00
  1.48968481e+00  1.49704481e+00  1.50321895e+00  1.51181576e+00
  1.53001312e+00  1.53749368e+00  1.54125030e+00  1.54987150e+00
  1.55633426e+00  1.56904128e+00  1.57330002e+00  1.58089198e+00
  1.58582966e+00  1.59916982e+00  1.60669339e+00  1.61865375e+00
  1.62553561e+00  1.63082441e+00  1.63227820e+00  1.64314651e+00
  1.64814745e+00  1.65663773e+00  1.66833201e+00  1.66899647e+00
  1.67655120e+00  1.68442804e+00  1.69777043e+00  1.70845249e+00
  1.71111821e+00  1.71615022e+00  1.72725823e+00  1.73156039e+00
  1.73884634e+00  1.74563653e+00  1.74958848e+00  1.75517243e+00
  1.76762874e+00  1.77592265e+00  1.78020173e+00  1.79601706e+00
  1.80619033e+00  1.82312426e+00  1.82717427e+00  1.83026959e+00
  1.84129071e+00  1.84852140e+00  1.85502231e+00  1.85876867e+00
  1.87174035e+00  1.87526355e+00  1.88032967e+00  1.88835277e+00
  1.90306778e+00  1.90822117e+00  1.91752061e+00  1.92754095e+00
  1.95169690e+00  1.96821716e+00  2.00126652e+00  2.03538879e+00
  2.05206418e+00  2.05645080e+00  2.07666320e+00  2.08456870e+00
  2.09543584e+00  2.11107068e+00  2.11853430e+00  2.14155134e+00
  2.17357674e+00  2.20499171e+00  2.30924384e+00  2.35012908e+00
  2.35990440e+00  2.37776898e+00  2.39505524e+00  2.39721273e+00
  2.41143857e+00  2.42669948e+00  2.43472783e+00  2.43892981e+00
  2.45358035e+00  2.46871769e+00  2.47371863e+00  2.47595870e+00
  2.50377263e+00  2.50961244e+00  2.51153457e+00  2.51329053e+00
  2.52620826e+00  2.54721028e+00  2.55080100e+00  2.55692008e+00
  2.56066964e+00  2.57075469e+00  2.59335658e+00  2.61120708e+00
  2.65001021e+00  2.68259629e+00  2.70556378e+00  2.73687154e+00
  2.74575052e+00  2.76560289e+00  2.76969519e+00  2.77689938e+00
  2.79735130e+00  2.80592903e+00  2.81657330e+00  2.82848691e+00
  2.83582541e+00  2.85921142e+00  2.86943333e+00  2.88752308e+00
  2.89372987e+00  2.90719697e+00  2.91827541e+00  2.92315536e+00
  2.93364451e+00  2.93623935e+00  2.95512725e+00  2.95693221e+00
  2.96839810e+00  2.98234684e+00  2.99043576e+00  3.01093314e+00
  3.01617276e+00  3.04254475e+00  3.09857478e+00  3.13497406e+00
  3.15161808e+00  3.16559265e+00  3.18765389e+00  3.19979665e+00
  3.20195045e+00  3.23749569e+00  3.40568966e+00  3.44560706e+00
  3.46358034e+00  3.46429387e+00  3.49785236e+00  3.50655409e+00
  3.54267150e+00  3.55637627e+00  3.57802193e+00  3.59464448e+00
  3.60665561e+00  3.64595486e+00  3.74817896e+00  3.75883256e+00
  3.77892136e+00  3.78686656e+00  3.79830452e+00  3.80344263e+00
  3.81870825e+00  3.82365780e+00  3.83069229e+00  3.83435901e+00
  3.85978617e+00  3.86544819e+00  3.98017596e+00  4.01917916e+00
  4.02565009e+00  4.03000722e+00  4.03608507e+00  4.04844104e+00
  4.05303662e+00  4.05948406e+00  4.06607782e+00  4.07135171e+00
  4.07589800e+00  4.07781181e+00  4.08719552e+00  4.09042813e+00
  4.09111145e+00  4.09543474e+00  4.10031639e+00  4.10840823e+00
  4.11969948e+00  4.12363192e+00  4.12591645e+00  4.12775095e+00
  4.13372322e+00  4.15046972e+00  4.15238963e+00  4.15394933e+00
  4.15717858e+00  4.16923857e+00  4.18061510e+00  4.18667561e+00
  4.18898383e+00  4.20326312e+00  4.20845807e+00  4.22850588e+00
  4.23164525e+00  4.25338107e+00  4.25932289e+00  4.27128935e+00
  4.29028259e+00  4.30715894e+00  4.31148113e+00  4.32380113e+00
  4.33148675e+00  4.34749625e+00  4.36261643e+00  4.36507915e+00
  4.36878434e+00  4.38540840e+00  4.39524029e+00  4.42026776e+00
  4.51216154e+00  4.54752748e+00  4.55045726e+00  4.55158487e+00
  4.55571311e+00  4.55648734e+00  4.55995840e+00  4.56369820e+00
  4.56812432e+00  4.57030905e+00  4.57307212e+00  4.57857834e+00
  4.58065877e+00  4.58324236e+00  4.58346904e+00  4.58593065e+00
  4.58724332e+00  4.59161942e+00  4.59333912e+00  4.59789207e+00
  4.60116284e+00  4.60314366e+00  4.60473888e+00  4.60572224e+00
  4.60950464e+00  4.61245414e+00  4.61897847e+00  4.62460595e+00
  4.64008726e+00  4.65859149e+00  5.20934777e+00  5.24852624e+00
  5.26907461e+00  5.30654980e+00  5.32084353e+00  5.34314492e+00
  5.35984248e+00  5.37601921e+00  5.37751980e+00  5.39382767e+00
  5.41766378e+00  5.42369454e+00  5.43815655e+00  5.47167049e+00
  5.48186389e+00  5.51308871e+00  5.52138032e+00  5.55645172e+00
  5.58373738e+00  5.61715877e+00  5.62737002e+00  5.62916955e+00
  5.66440354e+00  5.66797952e+00  5.68749006e+00  5.68882923e+00
  5.72444759e+00  5.73052276e+00  5.73317683e+00  5.75626978e+00
  5.76312778e+00  5.78136299e+00  5.80779454e+00  5.81528075e+00
  5.82311301e+00  5.83744923e+00  5.85403964e+00  5.87052011e+00
  5.87456554e+00  5.91001373e+00  5.92954437e+00  5.93625543e+00
  6.13500625e+00  6.18293055e+00  6.22138452e+00  6.25222561e+00
  6.42452709e+00  6.45841618e+00  6.46739991e+00  6.48615906e+00
  6.49008431e+00  6.51276580e+00  6.53854803e+00  6.58671757e+00
  6.80187291e+00  6.82973362e+00  6.85860739e+00  6.88559931e+00
  9.02280037e+00  9.24102865e+00  1.00433937e+01  1.00708945e+01
  1.01279132e+01  1.02028022e+01  1.02153071e+01  1.02610367e+01
  1.02824288e+01  1.03211830e+01  1.03457523e+01  1.04867616e+01
  1.73659284e+01  1.74632444e+01  4.12761032e+01  4.13296926e+01
  4.13761557e+01  4.14159936e+01  6.75700858e+01  6.77776231e+01
  6.85400015e+01  6.85658616e+01  6.86034985e+01  6.86702609e+01
  9.67869525e+01  9.67985077e+01  9.68106223e+01  9.68698098e+01
  9.68959540e+01  9.70234740e+01  2.49360311e+02  2.49444850e+02
  2.96829546e+02  2.97007182e+02  2.97749171e+02  2.97774988e+02
  2.97805492e+02  2.97864129e+02  1.33976937e+03  1.33995301e+03
  1.34069178e+03  1.34071758e+03  1.34074948e+03  1.34080940e+03
  1.65016158e+03  1.65024953e+03]
multiplicity <S^2> = 30.000697  2S+1 = 11.000127
nelec by numeric integration = [98.00000527 88.00000508]
    CPU time for vxc    135.20 sec, wall time      7.78 sec
    CPU time for vj and vk    314.69 sec, wall time     17.55 sec
E1 = -12874.191924530885  Ecoul = 6277.32737720344  Exc = -331.30564003139284
cycle= 2 E= -4569.23827327566  delta_E=  499  |g|= 39.4  |ddm|= 37.2
    CPU time for cycle= 2    471.13 sec, wall time     26.76 sec
diis-norm(errvec)=55.7445
diis-c [-9.42185248e+01  9.47807796e-01  5.21922039e-02]
  alpha nocc = 98  HOMO = -0.275559640253521  LUMO = -0.250321795646384
  beta  nocc = 88  HOMO = -0.469073376815732  LUMO = -0.444935395119978

WARN: system HOMO -0.261679710538501 >= system LUMO -0.444935395119978

  alpha mo_energy =
[-2.62611421e+02 -2.62610536e+02 -8.84311252e+01 -8.84307814e+01
 -8.80971198e+01 -8.80764181e+01 -8.80694133e+01 -8.80489949e+01
 -3.53629943e+01 -3.53621054e+01 -3.09676062e+01 -3.09666994e+01
 -3.09666962e+01 -3.09659867e+01 -3.09657970e+01 -3.09651399e+01
 -9.39139401e+00 -9.34382189e+00 -9.31616253e+00 -9.27599672e+00
 -7.87165403e+00 -7.87055585e+00 -7.50174424e+00 -7.48072113e+00
 -7.47432253e+00 -7.45431226e+00 -7.34375802e+00 -7.34241415e+00
 -6.04684856e+00 -6.04518316e+00 -6.03604551e+00 -6.03452803e+00
 -6.03339635e+00 -6.03204190e+00 -5.83295231e+00 -5.83207563e+00
 -5.83181164e+00 -5.83081476e+00 -5.82429862e+00 -5.82343514e+00
 -5.47189268e+00 -5.46592694e+00 -5.46086975e+00 -5.45071639e+00
 -5.44494598e+00 -5.44394965e+00 -5.43987532e+00 -5.43847747e+00
 -5.43342835e+00 -5.42375804e+00 -5.41834208e+00 -5.41331077e+00
 -4.01329397e+00 -4.01141305e+00 -4.01022023e+00 -4.00859560e+00
 -4.00846717e+00 -4.00694396e+00 -4.00017117e+00 -3.99998399e+00
 -3.99871567e+00 -3.99851793e+00 -2.00989905e+00 -1.80869283e+00
 -1.58358885e+00 -1.52291085e+00 -1.46180223e+00 -1.42761145e+00
 -1.39806822e+00 -1.37055412e+00 -1.08336397e+00 -1.08152734e+00
 -1.01540389e+00 -9.20449677e-01 -9.04927169e-01 -8.90793126e-01
 -8.62704143e-01 -8.18373597e-01 -8.01353771e-01 -7.96978397e-01
 -7.47541111e-01 -6.77978507e-01 -6.22933882e-01 -5.96039144e-01
 -5.67570055e-01 -5.21260439e-01 -5.02599584e-01 -4.84355679e-01
 -4.52113494e-01 -4.42061846e-01 -4.32804239e-01 -4.02119752e-01
 -3.72179553e-01 -3.60419276e-01 -3.36884663e-01 -3.27762292e-01
 -3.06455261e-01 -2.75559640e-01 -2.50321796e-01 -2.42251577e-01
 -2.31542719e-01 -2.16883412e-01 -2.13391687e-01 -1.98401822e-01
 -1.90617756e-01 -1.79881671e-01 -1.71295704e-01 -1.65025781e-01
 -1.61606610e-01 -1.51308375e-01 -1.35442946e-01 -1.09542725e-01
 -9.82035177e-02 -8.70540890e-02 -8.12547620e-02 -7.25275291e-02
 -6.63586604e-02 -6.12768619e-02 -5.68828107e-02 -5.18074243e-02
 -4.67008428e-02 -3.63290015e-02 -3.15226534e-02 -1.78755637e-02
 -1.62149159e-02 -6.65035438e-03  3.03574368e-03  1.65461507e-02
  3.05608361e-02  3.65811726e-02  5.66184313e-02  5.86743438e-02
  7.42868318e-02  7.82432234e-02  8.84134885e-02  9.49613223e-02
  1.05514095e-01  1.33923466e-01  1.35626002e-01  1.40081075e-01
  1.51738118e-01  1.52475013e-01  1.75111963e-01  1.81574934e-01
  1.93188964e-01  1.97792763e-01  2.05731127e-01  2.12103323e-01
  2.21566482e-01  2.38884041e-01  2.44855727e-01  2.46003932e-01
  2.55513940e-01  2.57826202e-01  2.62092342e-01  2.67010773e-01
  2.68205295e-01  2.77399826e-01  2.83062465e-01  2.96613614e-01
  3.00513616e-01  3.04198273e-01  3.11117029e-01  3.17588388e-01
  3.20887999e-01  3.28503978e-01  3.34286987e-01  3.37728746e-01
  3.43661265e-01  3.49152206e-01  3.53988677e-01  3.64643117e-01
  3.66998541e-01  3.73983716e-01  3.77903346e-01  3.83062619e-01
  3.88109549e-01  3.91637534e-01  3.94941275e-01  4.01149878e-01
  4.06086252e-01  4.10506362e-01  4.14168925e-01  4.20613619e-01
  4.28217201e-01  4.35340305e-01  4.45164880e-01  4.56658332e-01
  4.62575089e-01  4.65062535e-01  4.76332552e-01  4.77178809e-01
  4.91865345e-01  4.95458343e-01  5.01818947e-01  5.05250405e-01
  5.15100981e-01  5.25122026e-01  5.31598406e-01  5.41455517e-01
  5.45099850e-01  5.53408735e-01  5.64958437e-01  5.73676382e-01
  5.88876567e-01  6.03891435e-01  6.23498512e-01  6.29497774e-01
  6.53967962e-01  6.61727471e-01  6.73606526e-01  6.75787440e-01
  6.88879233e-01  6.90429901e-01  6.96667584e-01  7.07826106e-01
  7.12602424e-01  7.19561757e-01  7.24461573e-01  7.30565847e-01
  7.35178746e-01  7.48440910e-01  7.64504300e-01  7.66685692e-01
  7.81906239e-01  7.84075124e-01  7.95644721e-01  8.03896584e-01
  8.10975408e-01  8.13375637e-01  8.22159692e-01  8.27416423e-01
  8.36199659e-01  8.40061863e-01  8.50093709e-01  8.63021374e-01
  8.64007433e-01  8.73517904e-01  8.84297687e-01  8.88873863e-01
  8.97580549e-01  9.02277851e-01  9.04696222e-01  9.27011486e-01
  9.31316197e-01  9.42624078e-01  9.53803162e-01  9.65126812e-01
  9.73208392e-01  9.85581884e-01  1.01131869e+00  1.03089663e+00
  1.04635609e+00  1.04992263e+00  1.05996450e+00  1.07924972e+00
  1.08582019e+00  1.09042397e+00  1.09641476e+00  1.09708110e+00
  1.10650112e+00  1.11040630e+00  1.11551350e+00  1.11766830e+00
  1.12230332e+00  1.13055411e+00  1.13378517e+00  1.14252114e+00
  1.14544317e+00  1.15540482e+00  1.16172145e+00  1.16788945e+00
  1.18029604e+00  1.18690954e+00  1.19325922e+00  1.20305426e+00
  1.21080037e+00  1.21942154e+00  1.22371640e+00  1.23209537e+00
  1.24097071e+00  1.24399024e+00  1.24485970e+00  1.26594556e+00
  1.28034801e+00  1.29825580e+00  1.31438421e+00  1.31577885e+00
  1.32110754e+00  1.34215932e+00  1.35030057e+00  1.35239398e+00
  1.35751969e+00  1.36162805e+00  1.37005317e+00  1.37418973e+00
  1.39036455e+00  1.40203321e+00  1.40742190e+00  1.41124029e+00
  1.42522146e+00  1.43248179e+00  1.43851019e+00  1.44876379e+00
  1.45474509e+00  1.46100100e+00  1.46691947e+00  1.47879825e+00
  1.48346705e+00  1.48645700e+00  1.48877561e+00  1.49573608e+00
  1.50305866e+00  1.50749394e+00  1.51532447e+00  1.52024577e+00
  1.52624644e+00  1.52936962e+00  1.53384878e+00  1.54351806e+00
  1.54596665e+00  1.54924891e+00  1.55196049e+00  1.55953123e+00
  1.57169013e+00  1.57279296e+00  1.58400930e+00  1.58938874e+00
  1.59514139e+00  1.60482174e+00  1.61107244e+00  1.61533621e+00
  1.61681779e+00  1.63315466e+00  1.63450901e+00  1.64084029e+00
  1.65526145e+00  1.67089287e+00  1.67743658e+00  1.68314003e+00
  1.69058973e+00  1.70053519e+00  1.70608415e+00  1.71227451e+00
  1.72156118e+00  1.72719646e+00  1.73080031e+00  1.73651540e+00
  1.74942806e+00  1.75161596e+00  1.75653400e+00  1.75939837e+00
  1.76818270e+00  1.77541555e+00  1.78643201e+00  1.79365903e+00
  1.80265309e+00  1.80791535e+00  1.81784448e+00  1.82308889e+00
  1.83869283e+00  1.84480551e+00  1.84769345e+00  1.86945098e+00
  1.87518913e+00  1.87942049e+00  1.88367922e+00  1.90574071e+00
  1.91330154e+00  1.91619611e+00  1.93505751e+00  1.94133789e+00
  1.96530379e+00  1.98475095e+00  1.99097956e+00  2.02674193e+00
  2.04210415e+00  2.04586404e+00  2.06085874e+00  2.06731400e+00
  2.07178732e+00  2.08187469e+00  2.10718894e+00  2.11741261e+00
  2.24599016e+00  2.27677245e+00  2.28154180e+00  2.30340120e+00
  2.31760625e+00  2.32346854e+00  2.33960882e+00  2.34968086e+00
  2.35736545e+00  2.36458904e+00  2.36934940e+00  2.38892675e+00
  2.39570152e+00  2.40138393e+00  2.40566492e+00  2.41126213e+00
  2.42794847e+00  2.43113612e+00  2.43452190e+00  2.44016417e+00
  2.44628410e+00  2.45685070e+00  2.46017333e+00  2.46516429e+00
  2.47322096e+00  2.48871966e+00  2.49000512e+00  2.49770524e+00
  2.50484316e+00  2.51497758e+00  2.52505142e+00  2.53285298e+00
  2.58029535e+00  2.60359324e+00  2.62897602e+00  2.66350783e+00
  2.66589193e+00  2.68518490e+00  2.69021623e+00  2.69771707e+00
  2.71141895e+00  2.72662844e+00  2.72852260e+00  2.73854391e+00
  2.75634534e+00  2.77128118e+00  2.80205218e+00  2.81308915e+00
  2.83113426e+00  2.84175687e+00  2.84599637e+00  2.85494177e+00
  2.86141752e+00  2.87202191e+00  2.88236146e+00  2.88757514e+00
  2.88842034e+00  2.91117581e+00  2.91624221e+00  2.93564433e+00
  2.94145516e+00  2.96869071e+00  3.02222364e+00  3.05364178e+00
  3.07822325e+00  3.09520998e+00  3.11250579e+00  3.12042822e+00
  3.13381785e+00  3.15919249e+00  3.33238620e+00  3.36613561e+00
  3.38399879e+00  3.39962016e+00  3.41327951e+00  3.43601059e+00
  3.45619091e+00  3.46372013e+00  3.48918810e+00  3.49392385e+00
  3.50548228e+00  3.53998906e+00  3.65124947e+00  3.65742329e+00
  3.67744039e+00  3.68458275e+00  3.69204778e+00  3.70356242e+00
  3.71042404e+00  3.71397799e+00  3.71769770e+00  3.73040047e+00
  3.74264613e+00  3.75295032e+00  3.89481201e+00  3.92281843e+00
  3.92663771e+00  3.92881737e+00  3.94879092e+00  3.95489335e+00
  3.96297387e+00  3.97486764e+00  3.97762782e+00  3.97941668e+00
  3.98592488e+00  4.00416362e+00  4.00714194e+00  4.01087813e+00
  4.01291911e+00  4.01554430e+00  4.03596099e+00  4.03721109e+00
  4.04801896e+00  4.05215096e+00  4.06040247e+00  4.06809370e+00
  4.08325332e+00  4.09299656e+00  4.17184721e+00  4.18294739e+00
  4.20219369e+00  4.21398616e+00  4.21415411e+00  4.22374072e+00
  4.23097968e+00  4.24468259e+00  4.25554890e+00  4.26258736e+00
  4.26532280e+00  4.29312124e+00  4.42491245e+00  4.45456415e+00
  4.45705370e+00  4.45918538e+00  4.47583853e+00  4.48680288e+00
  4.49026761e+00  4.50162811e+00  4.50984700e+00  4.51267665e+00
  4.53335117e+00  4.54801649e+00  5.11218951e+00  5.14464242e+00
  5.16427399e+00  5.19610254e+00  5.22447691e+00  5.23874769e+00
  5.25447138e+00  5.26595532e+00  5.27030655e+00  5.28077882e+00
  5.28757112e+00  5.29947446e+00  5.30362512e+00  5.31054789e+00
  5.32236141e+00  5.32639461e+00  5.34101845e+00  5.34843438e+00
  5.35591862e+00  5.37330136e+00  5.37494677e+00  5.38344687e+00
  5.38536180e+00  5.39455118e+00  5.40900093e+00  5.41773772e+00
  5.42299862e+00  5.43059458e+00  5.44839328e+00  5.45705300e+00
  5.48300393e+00  5.50946156e+00  5.52328331e+00  5.52825619e+00
  5.53221603e+00  5.53949326e+00  5.55959994e+00  5.56509479e+00
  5.58087096e+00  5.58697407e+00  5.61816930e+00  5.62157899e+00
  5.67120188e+00  5.67200457e+00  5.67370712e+00  5.67538620e+00
  5.67773736e+00  5.68025423e+00  5.68175498e+00  5.68443134e+00
  5.68752317e+00  5.69217429e+00  5.69519760e+00  5.69617458e+00
  5.69715215e+00  5.69756485e+00  5.69893821e+00  5.70091597e+00
  5.70142896e+00  5.70684971e+00  5.70948484e+00  5.71279764e+00
  5.71706741e+00  5.72622810e+00  5.73431502e+00  5.75671858e+00
  5.75893642e+00  5.79376583e+00  5.99999139e+00  6.03903347e+00
  6.07394486e+00  6.07815448e+00  6.09474334e+00  6.10541224e+00
  6.14908294e+00  6.17625486e+00  6.28423445e+00  6.30650215e+00
  6.43648086e+00  6.46810187e+00  6.47679290e+00  6.49877785e+00
  6.51662002e+00  6.53742563e+00  6.57849076e+00  6.61848632e+00
  6.81482229e+00  6.83657637e+00  6.87637023e+00  6.90258677e+00
  9.35950581e+00  9.57957662e+00  1.00664043e+01  1.00872091e+01
  1.01462101e+01  1.02047438e+01  1.15154963e+01  1.15447863e+01
  1.15601774e+01  1.16288578e+01  1.16466985e+01  1.18031916e+01
  1.88622985e+01  1.89568793e+01  4.10768449e+01  4.11246636e+01
  4.11717159e+01  4.12070975e+01  6.79052027e+01  6.81020841e+01
  6.85186465e+01  6.85387331e+01  6.85880555e+01  6.86442203e+01
  9.85016811e+01  9.85101582e+01  9.85149814e+01  9.85835281e+01
  9.86019445e+01  9.87343100e+01  2.51125274e+02  2.51208708e+02
  2.97159019e+02  2.97328193e+02  2.97718037e+02  2.97737993e+02
  2.97777970e+02  2.97828050e+02  1.34009570e+03  1.34027016e+03
  1.34065555e+03  1.34067548e+03  1.34071753e+03  1.34076821e+03
  1.65197538e+03  1.65206244e+03]
  beta  mo_energy =
[-2.62611252e+02 -2.62610357e+02 -8.84304175e+01 -8.84301115e+01
 -8.80944467e+01 -8.80737660e+01 -8.80667673e+01 -8.80463208e+01
 -3.53627266e+01 -3.53618404e+01 -3.09673448e+01 -3.09664395e+01
 -3.09664296e+01 -3.09657009e+01 -3.09655268e+01 -3.09648497e+01
 -9.38085308e+00 -9.33268653e+00 -9.30457546e+00 -9.26401928e+00
 -7.87091698e+00 -7.86985493e+00 -7.49895167e+00 -7.47794893e+00
 -7.47155301e+00 -7.45151524e+00 -7.34138932e+00 -7.34007119e+00
 -6.04450526e+00 -6.04282732e+00 -6.03348184e+00 -6.03198009e+00
 -6.03111765e+00 -6.02984037e+00 -5.83230600e+00 -5.83146950e+00
 -5.83072967e+00 -5.82978117e+00 -5.82332048e+00 -5.82251084e+00
 -5.46728660e+00 -5.46250792e+00 -5.45840896e+00 -5.44618006e+00
 -5.44150757e+00 -5.43938947e+00 -5.43743666e+00 -5.43496262e+00
 -5.43108524e+00 -5.41923899e+00 -5.41469341e+00 -5.41093830e+00
 -4.01083263e+00 -4.00894629e+00 -4.00802279e+00 -4.00639270e+00
 -4.00632552e+00 -4.00484583e+00 -3.99800021e+00 -3.99745469e+00
 -3.99660342e+00 -3.99604267e+00 -2.00653329e+00 -1.80363857e+00
 -1.57995476e+00 -1.51597799e+00 -1.45568081e+00 -1.42218936e+00
 -1.39159399e+00 -1.36411041e+00 -1.07747531e+00 -1.07596472e+00
 -1.00740185e+00 -9.13200715e-01 -8.97119853e-01 -8.84185996e-01
 -8.53728923e-01 -8.08420778e-01 -7.89687515e-01 -7.87141887e-01
 -7.39037192e-01 -6.72737987e-01 -6.10211662e-01 -5.85912571e-01
 -5.53655406e-01 -5.11559498e-01 -4.91453373e-01 -4.69073377e-01
 -4.44935395e-01 -4.35521948e-01 -4.21817667e-01 -3.91815417e-01
 -3.57531534e-01 -3.42384673e-01 -3.16785159e-01 -3.07194483e-01
 -2.84995286e-01 -2.61679711e-01 -2.37870520e-01 -2.24612339e-01
 -2.15982587e-01 -2.02026129e-01 -1.97170636e-01 -1.82598252e-01
 -1.76235162e-01 -1.64893998e-01 -1.55026385e-01 -1.52280085e-01
 -1.46389521e-01 -1.37172168e-01 -1.22646770e-01 -9.37444037e-02
 -8.52417671e-02 -7.35724273e-02 -6.84252529e-02 -5.94497754e-02
 -5.18851646e-02 -4.62146961e-02 -4.01817228e-02 -3.75602666e-02
 -3.25463876e-02 -2.05877144e-02 -1.75779226e-02 -9.83270789e-04
  1.42048554e-03  1.18500173e-02  1.32367056e-02  3.54301291e-02
  4.34990794e-02  4.91753348e-02  6.72629359e-02  7.30728229e-02
  8.95448162e-02  9.53780681e-02  1.05225827e-01  1.10917808e-01
  1.27308925e-01  1.42187272e-01  1.44236835e-01  1.60672253e-01
  1.62623381e-01  1.68371503e-01  1.89916478e-01  1.99097236e-01
  2.07622110e-01  2.13117492e-01  2.22217791e-01  2.26887564e-01
  2.42664544e-01  2.63101675e-01  2.67363422e-01  2.73826355e-01
  2.75654765e-01  2.81909107e-01  2.89003646e-01  2.93667797e-01
  2.97836962e-01  3.00312864e-01  3.10485455e-01  3.24106349e-01
  3.28549521e-01  3.30728862e-01  3.35985978e-01  3.39217353e-01
  3.47211057e-01  3.53555146e-01  3.57079270e-01  3.59451932e-01
  3.69282147e-01  3.73006828e-01  3.76312042e-01  3.85726246e-01
  3.87611314e-01  3.95447960e-01  3.99277842e-01  4.03392676e-01
  4.10880165e-01  4.12373192e-01  4.15095793e-01  4.25182908e-01
  4.27715318e-01  4.29768477e-01  4.35098224e-01  4.40492663e-01
  4.45985431e-01  4.57448207e-01  4.66507747e-01  4.78200620e-01
  4.84225232e-01  4.85409507e-01  4.96490967e-01  4.97957067e-01
  5.09155733e-01  5.13214213e-01  5.24470386e-01  5.24972074e-01
  5.31295757e-01  5.45215193e-01  5.51429883e-01  5.59649819e-01
  5.64319170e-01  5.72224513e-01  5.84172386e-01  5.92866873e-01
  6.04716983e-01  6.20581769e-01  6.46031735e-01  6.52105504e-01
  6.77726747e-01  6.85927684e-01  6.98500723e-01  7.02843671e-01
  7.13160480e-01  7.16267010e-01  7.24447441e-01  7.35035820e-01
  7.39355499e-01  7.46428235e-01  7.51783210e-01  7.56252644e-01
  7.63750156e-01  7.73853352e-01  7.86837294e-01  7.94318511e-01
  8.06221804e-01  8.08948695e-01  8.19810787e-01  8.28990038e-01
  8.35963988e-01  8.38336526e-01  8.42506113e-01  8.49872835e-01
  8.59435256e-01  8.63163478e-01  8.71888480e-01  8.81663617e-01
  8.87833555e-01  8.95053992e-01  9.01169429e-01  9.08492265e-01
  9.16700694e-01  9.23664188e-01  9.27714386e-01  9.48800125e-01
  9.51436289e-01  9.60108822e-01  9.81039126e-01  9.87573691e-01
  9.96925626e-01  1.01509598e+00  1.03096349e+00  1.05426892e+00
  1.06421943e+00  1.06820789e+00  1.07929440e+00  1.09739445e+00
  1.10308653e+00  1.10603358e+00  1.11397716e+00  1.11678477e+00
  1.12507515e+00  1.12809280e+00  1.13435502e+00  1.14001359e+00
  1.14457674e+00  1.15038182e+00  1.15659962e+00  1.16329884e+00
  1.16866240e+00  1.17720334e+00  1.18257120e+00  1.19417582e+00
  1.20023260e+00  1.20297256e+00  1.21599067e+00  1.22245785e+00
  1.22849235e+00  1.23620226e+00  1.24314456e+00  1.25183842e+00
  1.25903258e+00  1.26399510e+00  1.26781759e+00  1.29091750e+00
  1.30752584e+00  1.31472047e+00  1.32204766e+00  1.33987355e+00
  1.35046902e+00  1.35969711e+00  1.36766611e+00  1.37022057e+00
  1.37577878e+00  1.37874608e+00  1.38877684e+00  1.39448379e+00
  1.40451659e+00  1.41738079e+00  1.42155938e+00  1.42905504e+00
  1.43511719e+00  1.44373837e+00  1.45704464e+00  1.46482333e+00
  1.46633793e+00  1.47784073e+00  1.48548289e+00  1.49884308e+00
  1.50085322e+00  1.50543604e+00  1.51018943e+00  1.51460881e+00
  1.52164909e+00  1.52448097e+00  1.53584672e+00  1.53950973e+00
  1.54749253e+00  1.55141667e+00  1.55370781e+00  1.55867985e+00
  1.56679111e+00  1.56929611e+00  1.57052063e+00  1.57599953e+00
  1.59090482e+00  1.59265100e+00  1.60564902e+00  1.60775946e+00
  1.61491141e+00  1.62112320e+00  1.62582075e+00  1.63306981e+00
  1.63488574e+00  1.64811657e+00  1.65425248e+00  1.65636634e+00
  1.67721026e+00  1.68798192e+00  1.69214567e+00  1.70003075e+00
  1.70890041e+00  1.71940260e+00  1.73045161e+00  1.73161695e+00
  1.74130211e+00  1.74536000e+00  1.75069142e+00  1.75691195e+00
  1.76464829e+00  1.76852138e+00  1.77366945e+00  1.77637954e+00
  1.78596307e+00  1.78895652e+00  1.80243116e+00  1.81050499e+00
  1.81881053e+00  1.82343405e+00  1.83339478e+00  1.83943966e+00
  1.85346423e+00  1.86052625e+00  1.86403077e+00  1.88394351e+00
  1.89271335e+00  1.89605523e+00  1.90159535e+00  1.92160555e+00
  1.92858955e+00  1.93370457e+00  1.94928686e+00  1.95456159e+00
  1.98048008e+00  1.99887419e+00  2.00667092e+00  2.04274721e+00
  2.06041707e+00  2.06438226e+00  2.07939314e+00  2.08625772e+00
  2.09056824e+00  2.10142261e+00  2.12786713e+00  2.13605408e+00
  2.27017874e+00  2.29192001e+00  2.30619451e+00  2.32614644e+00
  2.33707855e+00  2.34572170e+00  2.36404018e+00  2.37148039e+00
  2.37655981e+00  2.38453455e+00  2.38787111e+00  2.41007832e+00
  2.41555518e+00  2.41907159e+00  2.42631955e+00  2.43230598e+00
  2.44650176e+00  2.44905456e+00  2.45505874e+00  2.45753316e+00
  2.46334650e+00  2.47306980e+00  2.47849631e+00  2.48691330e+00
  2.49035082e+00  2.50617850e+00  2.50882074e+00  2.51558146e+00
  2.52133945e+00  2.53095009e+00  2.54268208e+00  2.55212771e+00
  2.59928212e+00  2.62451102e+00  2.64563212e+00  2.68008994e+00
  2.68295144e+00  2.70374505e+00  2.70959940e+00  2.71649759e+00
  2.73100069e+00  2.74834635e+00  2.75168274e+00  2.75993767e+00
  2.77964212e+00  2.79488210e+00  2.82276496e+00  2.83087781e+00
  2.85379494e+00  2.86122404e+00  2.86703336e+00  2.87458405e+00
  2.88196575e+00  2.89524629e+00  2.90245575e+00  2.90528135e+00
  2.91050243e+00  2.93263034e+00  2.93509219e+00  2.95811968e+00
  2.96158464e+00  2.99076811e+00  3.04502713e+00  3.07818500e+00
  3.10527877e+00  3.11983192e+00  3.14015680e+00  3.14748290e+00
  3.16058547e+00  3.18850904e+00  3.34470700e+00  3.38001058e+00
  3.39804031e+00  3.41823867e+00  3.42882293e+00  3.45583674e+00
  3.47472094e+00  3.48464062e+00  3.50921913e+00  3.51542675e+00
  3.52781141e+00  3.56369916e+00  3.67774800e+00  3.68119994e+00
  3.70603681e+00  3.71364551e+00  3.71681703e+00  3.72978551e+00
  3.74017622e+00  3.74211188e+00  3.74984240e+00  3.75993548e+00
  3.77113397e+00  3.78514023e+00  3.91913008e+00  3.94856494e+00
  3.95288117e+00  3.95440768e+00  3.97561168e+00  3.98352505e+00
  3.99077708e+00  3.99532430e+00  4.00481863e+00  4.00539881e+00
  4.01445816e+00  4.02203531e+00  4.02859884e+00  4.03348608e+00
  4.03956355e+00  4.04556979e+00  4.05533120e+00  4.05671515e+00
  4.07088860e+00  4.07555767e+00  4.08203173e+00  4.08873934e+00
  4.10732537e+00  4.11666666e+00  4.18938325e+00  4.20020068e+00
  4.22136948e+00  4.23306454e+00  4.23688988e+00  4.24385035e+00
  4.25136799e+00  4.26911518e+00  4.27737434e+00  4.28692113e+00
  4.28916072e+00  4.32099143e+00  4.44524595e+00  4.47444586e+00
  4.47855538e+00  4.47922671e+00  4.49976356e+00  4.50851976e+00
  4.51149274e+00  4.52423270e+00  4.53513071e+00  4.53615407e+00
  4.55696021e+00  4.57283888e+00  5.13094095e+00  5.16516200e+00
  5.18608282e+00  5.21870797e+00  5.24436872e+00  5.25694047e+00
  5.27582843e+00  5.28375083e+00  5.29072650e+00  5.29205103e+00
  5.30154022e+00  5.31117431e+00  5.31943437e+00  5.32611328e+00
  5.32890713e+00  5.33842532e+00  5.34795627e+00  5.35986634e+00
  5.36889831e+00  5.37802363e+00  5.39044067e+00  5.39633306e+00
  5.39903924e+00  5.40897790e+00  5.42108108e+00  5.42865618e+00
  5.43723354e+00  5.44627105e+00  5.45448588e+00  5.47682429e+00
  5.50367194e+00  5.52736406e+00  5.53254096e+00  5.54159258e+00
  5.54811920e+00  5.55040427e+00  5.58038964e+00  5.58465217e+00
  5.60399814e+00  5.60803151e+00  5.64140003e+00  5.64523947e+00
  5.67571871e+00  5.67769524e+00  5.67909403e+00  5.68003914e+00
  5.68242760e+00  5.68520866e+00  5.68894601e+00  5.69133816e+00
  5.69536808e+00  5.69666912e+00  5.69896691e+00  5.70110690e+00
  5.70226454e+00  5.70289706e+00  5.70517817e+00  5.70574479e+00
  5.71059125e+00  5.71318912e+00  5.71508541e+00  5.72127599e+00
[...]
  4.73300435e-01  4.78917124e-01  4.86247473e-01  4.90338592e-01
  4.96173552e-01  5.01694480e-01  5.10533621e-01  5.15290544e-01
  5.18251102e-01  5.26502667e-01  5.36283645e-01  5.38560484e-01
  5.38867624e-01  5.44345189e-01  5.47454551e-01  5.51546698e-01
  5.56161891e-01  5.64732087e-01  5.74888492e-01  5.82689008e-01
  5.86901044e-01  5.89114560e-01  5.95182193e-01  5.99076159e-01
  6.07343499e-01  6.12416977e-01  6.17530329e-01  6.28033224e-01
  6.31819016e-01  6.42998790e-01  6.47939065e-01  6.53274546e-01
  6.55177279e-01  6.57625217e-01  6.60272754e-01  6.64291440e-01
  6.70210768e-01  6.91308833e-01  6.97122662e-01  7.08357911e-01
  7.10119250e-01  7.12228250e-01  7.19449274e-01  7.21130876e-01
  7.28270978e-01  7.40899582e-01  7.62748212e-01  7.67792198e-01
  7.86204353e-01  7.96353438e-01  7.99528218e-01  8.09955881e-01
  8.10400861e-01  8.31834360e-01  8.47606832e-01  8.55008859e-01
  8.63922259e-01  8.68270278e-01  8.70798664e-01  8.75320169e-01
  8.80863173e-01  8.88619209e-01  8.99529427e-01  9.04356881e-01
  9.11999492e-01  9.16454405e-01  9.43363851e-01  9.49170586e-01
  9.54784391e-01  9.58291725e-01  9.65972742e-01  9.79946139e-01
  9.85217092e-01  9.90699230e-01  9.98951136e-01  1.01252011e+00
  1.05346792e+00  1.06383821e+00  1.06513794e+00  1.07361679e+00
  1.08597280e+00  1.08650895e+00  1.09454749e+00  1.09879281e+00
  1.10180102e+00  1.10292990e+00  1.10590313e+00  1.11074190e+00
  1.12020733e+00  1.12491524e+00  1.13173728e+00  1.15196402e+00
  1.15265881e+00  1.16063450e+00  1.17214052e+00  1.18671765e+00
  1.18771075e+00  1.19122657e+00  1.20832979e+00  1.21067223e+00
  1.21593036e+00  1.22094839e+00  1.23811903e+00  1.24232191e+00
  1.24445787e+00  1.25819847e+00  1.29497135e+00  1.30277321e+00
  1.30735224e+00  1.31766987e+00  1.32733592e+00  1.34584241e+00
  1.35181654e+00  1.35318442e+00  1.36382863e+00  1.37429928e+00
  1.39389713e+00  1.39613796e+00  1.40068566e+00  1.41190990e+00
  1.43029325e+00  1.44778262e+00  1.45175616e+00  1.46519970e+00
  1.46806754e+00  1.47064340e+00  1.47658504e+00  1.47675064e+00
  1.48901602e+00  1.49341643e+00  1.49432006e+00  1.50225705e+00
  1.51888038e+00  1.52496729e+00  1.53085687e+00  1.54068023e+00
  1.66144804e+00  1.68803162e+00  1.68979808e+00  1.71444816e+00
  1.71837074e+00  1.72027676e+00  1.72355782e+00  1.72723192e+00
  1.73051697e+00  1.73835544e+00  1.74021312e+00  1.74426336e+00
  1.75470898e+00  1.75661079e+00  1.75939657e+00  1.76460593e+00
  1.77220165e+00  1.77834271e+00  1.77887884e+00  1.78558213e+00
  1.79011227e+00  1.79229561e+00  1.79405333e+00  1.79934149e+00
  1.80370421e+00  1.81652482e+00  1.81992529e+00  1.82099950e+00
  1.82774517e+00  1.83055793e+00  1.83938520e+00  1.84051912e+00
  1.84417877e+00  1.84964527e+00  1.85192701e+00  1.85274338e+00
  1.86021793e+00  1.86767954e+00  1.87301733e+00  1.88094786e+00
  1.88491966e+00  1.88671125e+00  1.88830253e+00  1.89501200e+00
  1.90275635e+00  1.91077721e+00  1.91336987e+00  1.91588489e+00
  1.92378549e+00  1.93228490e+00  1.94197331e+00  1.94311835e+00
  1.94769337e+00  1.95479081e+00  1.95903215e+00  1.96883927e+00
  1.98696956e+00  1.98948853e+00  1.99167246e+00  2.00113148e+00
  2.00918482e+00  2.01294809e+00  2.02824646e+00  2.02964191e+00
  2.05203923e+00  2.05986656e+00  2.06309869e+00  2.06752318e+00
  2.08655721e+00  2.09869141e+00  2.11956424e+00  2.12618816e+00
  2.12944094e+00  2.13113394e+00  2.14751278e+00  2.17825908e+00
  2.18550563e+00  2.20480704e+00  2.20928908e+00  2.21167380e+00
  2.22859298e+00  2.23940379e+00  2.24981154e+00  2.25466794e+00
  2.25539957e+00  2.27607815e+00  2.28320733e+00  2.30782431e+00
  2.32329986e+00  2.32568046e+00  2.33264118e+00  2.33462000e+00
  2.34080262e+00  2.34469095e+00  2.35202104e+00  2.36185121e+00
  2.36659675e+00  2.37834836e+00  2.38060990e+00  2.38459089e+00
  2.39403534e+00  2.39734284e+00  2.40694037e+00  2.40957683e+00
  2.41380740e+00  2.42034252e+00  2.44176724e+00  2.44989557e+00
  2.45303877e+00  2.45652837e+00  2.46482991e+00  2.47026128e+00
  2.47164192e+00  2.49109464e+00  2.49904604e+00  2.52905111e+00
  2.59348262e+00  2.60483735e+00  2.60750119e+00  2.61091917e+00
  2.62533911e+00  2.62888093e+00  2.63278978e+00  2.63473427e+00
  2.64084673e+00  2.64637258e+00  2.65201939e+00  2.66147775e+00
  2.66394084e+00  2.69352380e+00  2.71138939e+00  2.73223786e+00
  2.75355649e+00  2.75867270e+00  2.77071975e+00  2.77278098e+00
  2.77440138e+00  2.78299597e+00  2.78528238e+00  2.78721869e+00
  2.79890495e+00  2.80415543e+00  2.82705823e+00  2.83970424e+00
  2.85212645e+00  2.89304483e+00  2.89562479e+00  2.90446651e+00
  2.90639370e+00  2.90929280e+00  2.91481997e+00  2.92754038e+00
  2.94177091e+00  2.95587118e+00  2.96897637e+00  2.98023907e+00
  3.00422101e+00  3.01191649e+00  3.01974507e+00  3.02364943e+00
  3.12415551e+00  3.13025398e+00  3.14018033e+00  3.14604065e+00
  3.25882255e+00  3.26791625e+00  3.28854990e+00  3.28935168e+00
  3.29002467e+00  3.29205941e+00  3.37733187e+00  3.38152327e+00
  3.38352671e+00  3.38603576e+00  3.39223698e+00  3.39375129e+00
  3.39650336e+00  3.39776858e+00  3.41600759e+00  3.45437083e+00
  3.47021790e+00  3.48081865e+00  3.49711992e+00  3.50396134e+00
  3.53390535e+00  3.55798862e+00  3.58153595e+00  3.58677127e+00
  3.59005802e+00  3.59088840e+00  3.59460722e+00  3.59713610e+00
  3.60028302e+00  3.60342865e+00  3.61609897e+00  3.63319770e+00
  3.64017703e+00  3.64087467e+00  3.64284564e+00  3.65618614e+00
  3.85274467e+00  3.85426230e+00  3.85548910e+00  3.85763195e+00
  3.85913312e+00  3.86066166e+00  3.86277070e+00  3.86496773e+00
  3.86721611e+00  3.86851700e+00  3.87297111e+00  3.87495299e+00
  3.94883355e+00  3.95085959e+00  3.95350567e+00  3.95418388e+00
  3.95619397e+00  3.95931927e+00  3.96116622e+00  3.96497995e+00
  3.97274018e+00  3.97656928e+00  3.98272451e+00  3.99157555e+00
  4.11790075e+00  4.12232050e+00  4.12680470e+00  4.13580539e+00
  4.13676025e+00  4.13761460e+00  4.13931938e+00  4.14257945e+00
  4.14503935e+00  4.14695652e+00  4.15294968e+00  4.15423664e+00
  4.38019774e+00  4.38203587e+00  4.38610625e+00  4.38754675e+00
  4.39084413e+00  4.39537396e+00  4.39710216e+00  4.39946138e+00
  4.40002480e+00  4.40236408e+00  4.40535278e+00  4.40932577e+00
  4.44921105e+00  4.45640571e+00  4.48182766e+00  4.51705803e+00
  4.53980514e+00  4.71667405e+00  5.05219174e+00  5.05398537e+00
  5.05877099e+00  5.06548281e+00  5.16449919e+00  5.16722217e+00
  5.17198892e+00  5.17553311e+00  5.17788942e+00  5.18151484e+00
  5.18466332e+00  5.18883441e+00  5.27989612e+00  5.28540529e+00
  5.29123898e+00  5.30123764e+00  5.35809134e+00  5.36300019e+00
  5.36443440e+00  5.36919460e+00  5.46289938e+00  5.46600267e+00
  5.46724662e+00  5.46811352e+00  5.47051664e+00  5.47458766e+00
  5.47712140e+00  5.47867063e+00  5.60390900e+00  5.60567502e+00
  5.60752104e+00  5.60911592e+00  5.61305753e+00  5.61442755e+00
  5.61672772e+00  5.61980512e+00  5.90331241e+00  5.91083581e+00
  5.92728278e+00  5.93711268e+00  6.51851232e+00  6.54494017e+00
  6.54847313e+00  6.56112618e+00  6.57236227e+00  6.57424318e+00
  6.63347343e+00  6.64028017e+00  6.65234615e+00  6.67062887e+00
  6.67957748e+00  6.69132513e+00  6.75760544e+00  6.81185315e+00
  6.92596038e+00  6.93142620e+00  6.95945951e+00  6.98085121e+00
  8.98385341e+00  8.98418039e+00  8.98525607e+00  8.98577754e+00
  8.98704410e+00  8.98823704e+00  8.98869349e+00  8.98934150e+00
  8.98937814e+00  8.99085338e+00  8.99266895e+00  8.99482114e+00
  8.99825748e+00  9.00097957e+00  9.00175898e+00  9.00560704e+00
  9.00644655e+00  9.00832314e+00  9.18597004e+00  9.20318371e+00
  9.20822646e+00  9.21478666e+00  9.21980864e+00  9.22674699e+00
  9.23916155e+00  9.25098531e+00  9.26051207e+00  9.27145145e+00
  9.31577707e+00  9.33775281e+00  9.42464486e+00  9.44768713e+00
  9.84583066e+00  1.00176589e+01  1.01450167e+01  1.01468024e+01
  1.02867502e+01  1.03045680e+01  1.57362201e+01  1.57436060e+01
  1.57559370e+01  1.58204700e+01  1.58379589e+01  1.60215121e+01
  2.36859414e+01  2.37746912e+01  4.07975806e+01  4.08012712e+01
  4.08177733e+01  4.08223642e+01  6.83064406e+01  6.84432711e+01
  6.85457423e+01  6.85475547e+01  6.86518083e+01  6.86625425e+01
  1.04032896e+02  1.04043129e+02  1.04045817e+02  1.04111152e+02
  1.04129286e+02  1.04267388e+02  2.56833521e+02  2.56916425e+02
  2.97522513e+02  2.97636587e+02  2.97720210e+02  2.97721757e+02
  2.97809639e+02  2.97821181e+02  1.34044247e+03  1.34056012e+03
  1.34064592e+03  1.34064754e+03  1.34073815e+03  1.34075104e+03
  1.65781844e+03  1.65790544e+03]
  beta  mo_energy =
[-2.56757016e+02 -2.56756715e+02 -8.80928933e+01 -8.80927215e+01
 -8.80920085e+01 -8.80914218e+01 -8.80748057e+01 -8.80745828e+01
 -2.97550575e+01 -2.97548167e+01 -2.53161597e+01 -2.53158934e+01
 -2.53144492e+01 -2.53142268e+01 -2.53141429e+01 -2.53139038e+01
 -9.68746917e+00 -9.68690038e+00 -9.68598055e+00 -9.68574397e+00
 -7.43727068e+00 -7.43706159e+00 -7.43655870e+00 -7.43591482e+00
 -7.42027782e+00 -7.41989231e+00 -5.41430727e+00 -5.41410717e+00
 -5.41351878e+00 -5.41287661e+00 -5.40685608e+00 -5.40665261e+00
 -5.40619588e+00 -5.40558342e+00 -5.40539269e+00 -5.40518312e+00
 -5.40465078e+00 -5.40399095e+00 -5.39197979e+00 -5.39177312e+00
 -5.39161342e+00 -5.39139527e+00 -5.39079692e+00 -5.39042135e+00
 -3.05089274e+00 -3.05060775e+00 -1.81007204e+00 -1.80970587e+00
 -1.80876459e+00 -1.80628968e+00 -1.80570254e+00 -1.80544440e+00
 -4.63060394e-01 -4.62907223e-01 -4.61416358e-01 -4.61266815e-01
 -3.40338214e-01 -3.22252288e-01 -3.13336732e-01 -3.10697065e-01
 -3.09891743e-01 -3.09157213e-01 -1.62517356e-01 -1.61838069e-01
 -1.60822303e-01 -1.59995701e-01 -1.59755201e-01 -1.59100822e-01
 -1.56917966e-01 -1.55926644e-01 -9.01032600e-02 -8.83877856e-02
 -8.27762888e-02 -8.21993525e-02 -2.97162018e-02 -1.51940389e-02
  7.93262630e-04  1.25666408e-02  1.32079600e-02  1.60924868e-02
  1.62892221e-02  2.58623529e-02  2.85678791e-02  3.31782853e-02
  4.13242407e-02  4.27087213e-02  5.99799067e-02  7.05781365e-02
  9.36136306e-02  1.01706443e-01  1.16552850e-01  1.36037792e-01
  1.40050764e-01  1.44368157e-01  1.48556974e-01  1.51783898e-01
  1.64430648e-01  1.76181625e-01  2.35779250e-01  2.37221671e-01
  2.40456457e-01  2.47714491e-01  2.65282825e-01  2.84594227e-01
  2.87135559e-01  2.89025697e-01  2.93571899e-01  2.94085897e-01
  2.99535017e-01  3.05097045e-01  3.08004505e-01  3.12541731e-01
  3.17842016e-01  3.23337130e-01  3.53921517e-01  3.55571026e-01
  3.71477922e-01  3.76969264e-01  3.84635629e-01  3.88587147e-01
  3.94733999e-01  4.02196965e-01  4.17898987e-01  4.22776439e-01
  4.27723470e-01  4.29696892e-01  4.31413933e-01  4.33713126e-01
  4.39020143e-01  4.41712550e-01  4.52137926e-01  4.58831035e-01
  4.69925526e-01  4.73892753e-01  4.80726631e-01  4.83878405e-01
  4.87537087e-01  4.91613844e-01  5.00071833e-01  5.02446062e-01
  5.09397247e-01  5.13786395e-01  5.21066938e-01  5.24590523e-01
  5.29164098e-01  5.37546426e-01  5.47176301e-01  5.47482667e-01
  5.50379042e-01  5.54148015e-01  5.55482037e-01  5.64601091e-01
  5.68708982e-01  5.74332209e-01  5.84582874e-01  5.91956029e-01
  5.94829469e-01  5.98763836e-01  6.02698823e-01  6.12982942e-01
  6.17530402e-01  6.22222574e-01  6.31506265e-01  6.37736184e-01
  6.41201368e-01  6.46862267e-01  6.53456796e-01  6.58788931e-01
  6.60759552e-01  6.62848785e-01  6.64547336e-01  6.68630656e-01
  6.73658409e-01  6.98437673e-01  7.03442229e-01  7.13978564e-01
  7.19106781e-01  7.21710687e-01  7.25585183e-01  7.28892970e-01
  7.37455394e-01  7.46482386e-01  7.76572339e-01  7.79556995e-01
  8.01366935e-01  8.11382841e-01  8.16633139e-01  8.26843789e-01
  8.28056640e-01  8.43776498e-01  8.56376753e-01  8.63738040e-01
  8.69987221e-01  8.73368366e-01  8.75453983e-01  8.79313054e-01
  8.86118209e-01  8.92842018e-01  9.07780490e-01  9.10506955e-01
  9.19082222e-01  9.34142545e-01  9.50821206e-01  9.53956956e-01
  9.56833447e-01  9.61843207e-01  9.82641257e-01  1.00228029e+00
  1.00610456e+00  1.01310312e+00  1.02713788e+00  1.03628938e+00
  1.07139938e+00  1.07608844e+00  1.07923566e+00  1.08739020e+00
  1.09114009e+00  1.09621966e+00  1.10078722e+00  1.10466925e+00
  1.11066304e+00  1.11386309e+00  1.11483358e+00  1.12085772e+00
  1.12621303e+00  1.13226416e+00  1.14580404e+00  1.16593797e+00
  1.16985046e+00  1.17699474e+00  1.18534469e+00  1.19675248e+00
  1.19926402e+00  1.20031210e+00  1.21565989e+00  1.22048675e+00
  1.22605333e+00  1.23266349e+00  1.25057590e+00  1.25570996e+00
  1.26115768e+00  1.27244188e+00  1.30823191e+00  1.31196178e+00
  1.31665412e+00  1.32212724e+00  1.34245327e+00  1.36597889e+00
  1.37432003e+00  1.38022139e+00  1.38679245e+00  1.39748932e+00
  1.40176471e+00  1.40634737e+00  1.40765184e+00  1.42317525e+00
  1.43789549e+00  1.45428399e+00  1.45798946e+00  1.47052538e+00
  1.47272016e+00  1.47399483e+00  1.47942793e+00  1.48169158e+00
  1.49489289e+00  1.49792228e+00  1.49960237e+00  1.50770117e+00
  1.52159138e+00  1.52846311e+00  1.53523784e+00  1.54372359e+00
  1.67440910e+00  1.70047531e+00  1.71166737e+00  1.73221965e+00
  1.73502486e+00  1.73607941e+00  1.73913661e+00  1.74376130e+00
  1.74600390e+00  1.75080886e+00  1.75724942e+00  1.75752586e+00
  1.76578285e+00  1.77430197e+00  1.77661877e+00  1.78045498e+00
  1.78468492e+00  1.79235631e+00  1.79568659e+00  1.79702826e+00
  1.80070829e+00  1.80248200e+00  1.80717992e+00  1.80897675e+00
  1.81472514e+00  1.82808093e+00  1.83147512e+00  1.83243097e+00
  1.83963710e+00  1.84439612e+00  1.84994124e+00  1.85165628e+00
  1.85565554e+00  1.86037923e+00  1.86318896e+00  1.86683378e+00
  1.87180636e+00  1.87796624e+00  1.88609072e+00  1.89717087e+00
  1.89818291e+00  1.89937023e+00  1.90046825e+00  1.90978630e+00
  1.91617136e+00  1.92286242e+00  1.92597741e+00  1.93007281e+00
  1.93903698e+00  1.94321391e+00  1.95347181e+00  1.95602827e+00
  1.95959430e+00  1.97065345e+00  1.97770203e+00  1.99024499e+00
  2.00178796e+00  2.00521520e+00  2.00838433e+00  2.01735777e+00
  2.02967454e+00  2.03592744e+00  2.04894572e+00  2.04934108e+00
  2.07245999e+00  2.07593077e+00  2.07712076e+00  2.08686014e+00
  2.10394816e+00  2.11299146e+00  2.12967331e+00  2.13637436e+00
  2.14215671e+00  2.14476685e+00  2.16080310e+00  2.20461113e+00
  2.21663675e+00  2.21963132e+00  2.23050859e+00  2.23512004e+00
  2.24807720e+00  2.25569506e+00  2.26868247e+00  2.28722793e+00
  2.28998107e+00  2.29897183e+00  2.30866987e+00  2.32705279e+00
  2.33641311e+00  2.33751914e+00  2.34319379e+00  2.34817923e+00
  2.35468501e+00  2.35682970e+00  2.36070723e+00  2.37242091e+00
  2.37399770e+00  2.38272322e+00  2.38645250e+00  2.39419142e+00
  2.39916916e+00  2.40655656e+00  2.41322567e+00  2.41839312e+00
  2.42275509e+00  2.42717577e+00  2.45221353e+00  2.45456082e+00
  2.46150703e+00  2.46421937e+00  2.47204499e+00  2.47590096e+00
  2.48550717e+00  2.49559357e+00  2.50271267e+00  2.56566837e+00
  2.59630759e+00  2.60963835e+00  2.61178632e+00  2.61429840e+00
  2.62761014e+00  2.63160157e+00  2.63812867e+00  2.63963613e+00
  2.64525203e+00  2.65154611e+00  2.66382386e+00  2.66543108e+00
  2.72342402e+00  2.76285344e+00  2.76382779e+00  2.77196712e+00
  2.77501158e+00  2.77685202e+00  2.77986064e+00  2.78551303e+00
  2.79257745e+00  2.79810338e+00  2.80728938e+00  2.80877842e+00
  2.83869999e+00  2.85766265e+00  2.88069936e+00  2.88512677e+00
  2.89433727e+00  2.89774795e+00  2.90080932e+00  2.91604879e+00
  2.91793827e+00  2.92085178e+00  2.93966546e+00  2.95640356e+00
  2.97039899e+00  2.99793117e+00  2.99942115e+00  3.01074050e+00
  3.02323327e+00  3.03232944e+00  3.05147032e+00  3.06263907e+00
  3.13128931e+00  3.13375704e+00  3.14634126e+00  3.15063174e+00
  3.28783262e+00  3.28944555e+00  3.29077562e+00  3.29269984e+00
  3.32354441e+00  3.33654531e+00  3.38284833e+00  3.38496572e+00
  3.38751843e+00  3.38998934e+00  3.39579358e+00  3.39628463e+00
  3.39857004e+00  3.39988097e+00  3.49575781e+00  3.54477466e+00
  3.55770358e+00  3.56807967e+00  3.57848833e+00  3.57932618e+00
  3.58730719e+00  3.59246525e+00  3.59371097e+00  3.59564767e+00
  3.59917265e+00  3.60452361e+00  3.60621241e+00  3.61106544e+00
  3.61435595e+00  3.64202562e+00  3.64665432e+00  3.65464462e+00
  3.66090842e+00  3.67679699e+00  3.68907116e+00  3.72029104e+00
  3.85414826e+00  3.85582868e+00  3.85709281e+00  3.85917296e+00
  3.86074862e+00  3.86209905e+00  3.86410976e+00  3.86647203e+00
  3.86955956e+00  3.87035092e+00  3.87515010e+00  3.87875702e+00
  3.94985892e+00  3.95193213e+00  3.95458794e+00  3.95538874e+00
  3.95811876e+00  3.96149630e+00  3.96309300e+00  3.96705703e+00
  3.97474090e+00  3.97854770e+00  3.98545596e+00  3.99555150e+00
  4.11909961e+00  4.12381627e+00  4.12923689e+00  4.13757850e+00
  4.13829987e+00  4.13927302e+00  4.14112860e+00  4.14420430e+00
  4.14640423e+00  4.14833463e+00  4.15489222e+00  4.15617665e+00
  4.38329522e+00  4.38415654e+00  4.38823206e+00  4.38869543e+00
  4.39633453e+00  4.39918553e+00  4.40072078e+00  4.40169933e+00
  4.40253374e+00  4.40684779e+00  4.40795488e+00  4.41091763e+00
  4.52951804e+00  4.53829853e+00  4.56279139e+00  4.61163257e+00
  4.63434557e+00  4.80183617e+00  5.05353910e+00  5.05531786e+00
  5.06015255e+00  5.06697343e+00  5.16629555e+00  5.16848350e+00
  5.17384408e+00  5.17684800e+00  5.17925836e+00  5.18308323e+00
  5.18607852e+00  5.19042431e+00  5.28078463e+00  5.28624249e+00
  5.29210748e+00  5.30212008e+00  5.35928657e+00  5.36424321e+00
  5.36572667e+00  5.37039026e+00  5.46403383e+00  5.46707047e+00
  5.46832628e+00  5.46926602e+00  5.47162007e+00  5.47569067e+00
  5.47826838e+00  5.47983372e+00  5.60477287e+00  5.60657791e+00
  5.60843258e+00  5.61006685e+00  5.61403886e+00  5.61542881e+00
  5.61769183e+00  5.62076748e+00  5.90472064e+00  5.91227333e+00
  5.92890493e+00  5.93879065e+00  6.52561663e+00  6.55445468e+00
  6.55720758e+00  6.56817133e+00  6.57886944e+00  6.58682754e+00
  6.63988447e+00  6.64587752e+00  6.65832964e+00  6.68043554e+00
  6.68930419e+00  6.69746277e+00  6.76702092e+00  6.82275561e+00
  6.92965706e+00  6.93509185e+00  6.96360521e+00  6.98596737e+00
  9.11781366e+00  9.11805337e+00  9.11930360e+00  9.12023044e+00
  9.12035540e+00  9.12104731e+00  9.12139989e+00  9.12186241e+00
  9.12200502e+00  9.12254303e+00  9.12262385e+00  9.12373529e+00
  9.12449909e+00  9.12580653e+00  9.12741229e+00  9.12931900e+00
  9.13102516e+00  9.13357290e+00  9.33868483e+00  9.35178385e+00
  9.35439402e+00  9.36254346e+00  9.37500795e+00  9.37558524e+00
  9.39521133e+00  9.40224515e+00  9.41655463e+00  9.42458018e+00
  9.46943336e+00  9.48551658e+00  9.55704381e+00  9.58160023e+00
  9.85481605e+00  1.00241545e+01  1.01479422e+01  1.01496594e+01
  1.02935341e+01  1.03139229e+01  1.58586266e+01  1.58667894e+01
  1.58791718e+01  1.59465636e+01  1.59640147e+01  1.61431300e+01
  2.37961255e+01  2.38847130e+01  4.07979144e+01  4.08016049e+01
  4.08180937e+01  4.08226736e+01  6.83125695e+01  6.84479714e+01
  6.85482745e+01  6.85500473e+01  6.86543454e+01  6.86665032e+01
  1.04073038e+02  1.04083058e+02  1.04085923e+02  1.04152215e+02
  1.04170369e+02  1.04307357e+02  2.56852742e+02  2.56935639e+02
  2.97526606e+02  2.97639699e+02  2.97721936e+02  2.97723456e+02
  2.97811350e+02  2.97823881e+02  1.34044395e+03  1.34056131e+03
  1.34064669e+03  1.34064829e+03  1.34073891e+03  1.34075210e+03
  1.65782131e+03  1.65790830e+03]
multiplicity <S^2> = 30.020283  2S+1 = 11.003687
E1 = -11798.86533443271  Ecoul = 4633.050900409273  Exc = -294.9852600427779
macro= 2  E= -5101.86777998304  delta_E= 0  |g|= 4.7914e-07  1 KF 2 JK
    CPU time for cycle= 3    299.94 sec, wall time     19.10 sec
Canonicalize SCF orbitals
macro X = 3  E=-5101.86777998304  |g|= 4.7914e-07  total 9 KF 67 JK

WARN: HOMO 0.09797704744194778 > LUMO 0.09361363058234752 was found in the canonicalized orbitals.

    CPU time for Second order SCF   8968.81 sec, wall time    508.93 sec
converged SCF energy = -5101.86777998304  <S^2> = 30.020283  2S+1 = 11.003687
