[Molden Format]
made by pyscf v[2.4.0]
[Atoms] (AU)
Fe   1   26     9.86437037022962     1.98421243079332   -15.02332269029224
S   2   16     7.29434284082114    -0.52912331487822   -17.12091868855946
S   3   16     9.44863062282531     1.79523981833681   -10.69584986503825
S   4   16     9.01399361417534     6.00932907611690   -16.51620632869864
S   5   16    13.66271988060540     0.52912331487822   -15.83590492385522
Fe   6   26    11.11158961244256    -1.98421243079332   -17.93350092212244
S   7   16    11.52732935984688    -1.79523981833681   -22.27987100862208
S   8   16    11.96196636849684    -6.00932907611690   -16.45951454496169
C   9   6    11.33835674739037     8.20141138061237   -15.43906243769655
H   10   1    12.20763076469030     9.08958265915795   -17.02643238233121
H   11   1    10.45018546884479     9.59980871279051   -14.26743224046622
H   12   1    12.73675407956852     7.21875379583854   -14.36191854669447
C   13   6     6.29278799480166     2.47554122318023    -9.78878132524702
H   14   1     5.12115779757132     0.86927401729993   -10.14782928891438
H   15   1     6.23609621106470     2.91017823183020    -7.80456889445371
H   16   1     5.61248658995823     4.06291116781488   -10.82813069375780
C   17   6     9.63760323528181    -8.20141138061237   -17.53665843596377
H   18   1    10.50687725258174    -9.54311692905356   -18.76498041693106
H   19   1     8.82502100171884    -9.14627444289490   -15.94928849132912
H   20   1     8.20141138061237    -7.19985653459289   -18.53821328198326
C   21   6    14.68317198787053    -2.47554122318023   -23.18693954841331
H   22   1    14.81545281659008    -2.55113026816283   -25.20894650169792
H   23   1    15.91149396883782    -1.02045210726513   -22.48774088232424
H   24   1    15.23119256399440    -4.25188378027139   -22.41215183734163
[GTO]
1 0
 s    6 1.00
       489363.91999756   0.003350001379677
        76936.88249538   0.010014735201831
        19111.87896905   0.029489541326053
         5953.14711781   0.083206542360293
         2026.23124631    0.25505082434793
          720.41679911    0.71419663548118
 s    2 1.00
          109.11058782    0.74093523374345
           46.72162464    0.28463634357546
 s    2 1.00
            2.44747866    0.38985772703801
             1.1660482    0.63355089030013
 s    1 1.00
          270.92857792                   1
 s    1 1.00
           17.32120133                   1
 s    1 1.00
            7.50518249                   1
 s    1 1.00
            0.53243004                   1
 s    1 1.00
            0.11921823                   1
 s    1 1.00
            0.04225089                   1
 p    5 1.00
         4524.59978956  0.0028146526066035
         1117.10671951   0.015786411749766
          383.18041997   0.070309713574534
          150.91292643    0.25732484525004
           63.20731062    0.74016694058612
 p    2 1.00
           27.51598778    0.50655350945781
           12.38754653    0.54061897628066
 p    3 1.00
            2.50956697    0.52194043612711
            1.07890467    0.50540565320498
            0.43388971   0.037298440805319
 p    1 1.00
            5.64019838                   1
 p    1 1.00
              0.819521                   1
 p    1 1.00
            0.42475725                   1
 d    4 1.00
           57.37689087   0.021868805390254
            16.5000892    0.12813186610507
            5.79890555     0.3863088025741
            2.17706897    0.63484874555344
 d    1 1.00
            0.79292368                   1
 d    1 1.00
            0.26063792                   1
 f    1 1.00
            3.44034529                   1
 f    1 1.00
            0.84589748                   1
 g    1 1.00
            2.25265017                   1

2 0
 s    5 1.00
       131334.98114592   0.004900029954672
        20181.90041917   0.018510718616524
         4835.70463137   0.066508300963639
          1439.7381539    0.23442745803641
          476.15426264    0.75920319935527
 s    2 1.00
            3.37495581    -0.6585952448555
            1.51749916   -0.36774281304806
 s    1 1.00
          168.68252004                   1
 s    1 1.00
           62.92253974                   1
 s    1 1.00
           24.33329987                   1
 s    1 1.00
            6.86573753                   1
 s    1 1.00
            0.44651463                   1
 s    1 1.00
            0.16174242                   1
 p    6 1.00
           754.1523594  0.0018880392695063
          193.63344693   0.012415787013658
           64.14106193   0.058846979762122
           23.75714449    0.19568881772651
            9.45234322    0.40880788238935
            3.93996824    0.48080058752795
 p    1 1.00
            1.72080555                   1
 p    1 1.00
            0.77076298                   1
 p    1 1.00
            0.28737379                   1
 p    1 1.00
             0.1011323                   1
 d    1 1.00
              0.264839                   1
 d    1 1.00
              0.781337                   1
 f    1 1.00
               0.58379                   1

3 0
 s    5 1.00
       131334.98114592   0.004900029954672
        20181.90041917   0.018510718616524
         4835.70463137   0.066508300963639
          1439.7381539    0.23442745803641
          476.15426264    0.75920319935527
 s    2 1.00
            3.37495581    -0.6585952448555
            1.51749916   -0.36774281304806
 s    1 1.00
          168.68252004                   1
 s    1 1.00
           62.92253974                   1
 s    1 1.00
           24.33329987                   1
 s    1 1.00
            6.86573753                   1
 s    1 1.00
            0.44651463                   1
 s    1 1.00
            0.16174242                   1
 p    6 1.00
           754.1523594  0.0018880392695063
          193.63344693   0.012415787013658
           64.14106193   0.058846979762122
           23.75714449    0.19568881772651
            9.45234322    0.40880788238935
            3.93996824    0.48080058752795
 p    1 1.00
            1.72080555                   1
 p    1 1.00
            0.77076298                   1
 p    1 1.00
            0.28737379                   1
 p    1 1.00
             0.1011323                   1
 d    1 1.00
              0.264839                   1
 d    1 1.00
              0.781337                   1
 f    1 1.00
               0.58379                   1

4 0
 s    5 1.00
       131334.98114592   0.004900029954672
        20181.90041917   0.018510718616524
         4835.70463137   0.066508300963639
          1439.7381539    0.23442745803641
          476.15426264    0.75920319935527
 s    2 1.00
            3.37495581    -0.6585952448555
            1.51749916   -0.36774281304806
 s    1 1.00
          168.68252004                   1
 s    1 1.00
           62.92253974                   1
 s    1 1.00
           24.33329987                   1
 s    1 1.00
            6.86573753                   1
 s    1 1.00
            0.44651463                   1
 s    1 1.00
            0.16174242                   1
 p    6 1.00
           754.1523594  0.0018880392695063
          193.63344693   0.012415787013658
           64.14106193   0.058846979762122
           23.75714449    0.19568881772651
            9.45234322    0.40880788238935
            3.93996824    0.48080058752795
 p    1 1.00
            1.72080555                   1
 p    1 1.00
            0.77076298                   1
 p    1 1.00
            0.28737379                   1
 p    1 1.00
             0.1011323                   1
 d    1 1.00
              0.264839                   1
 d    1 1.00
              0.781337                   1
 f    1 1.00
               0.58379                   1

5 0
 s    5 1.00
       131334.98114592   0.004900029954672
        20181.90041917   0.018510718616524
         4835.70463137   0.066508300963639
          1439.7381539    0.23442745803641
          476.15426264    0.75920319935527
 s    2 1.00
            3.37495581    -0.6585952448555
            1.51749916   -0.36774281304806
 s    1 1.00
          168.68252004                   1
 s    1 1.00
           62.92253974                   1
 s    1 1.00
           24.33329987                   1
 s    1 1.00
            6.86573753                   1
 s    1 1.00
            0.44651463                   1
 s    1 1.00
            0.16174242                   1
 p    6 1.00
           754.1523594  0.0018880392695063
          193.63344693   0.012415787013658
           64.14106193   0.058846979762122
           23.75714449    0.19568881772651
            9.45234322    0.40880788238935
            3.93996824    0.48080058752795
 p    1 1.00
            1.72080555                   1
 p    1 1.00
            0.77076298                   1
 p    1 1.00
            0.28737379                   1
 p    1 1.00
             0.1011323                   1
 d    1 1.00
              0.264839                   1
 d    1 1.00
              0.781337                   1
 f    1 1.00
               0.58379                   1

6 0
 s    6 1.00
       489363.91999756   0.003350001379677
        76936.88249538   0.010014735201831
        19111.87896905   0.029489541326053
         5953.14711781   0.083206542360293
         2026.23124631    0.25505082434793
          720.41679911    0.71419663548118
 s    2 1.00
          109.11058782    0.74093523374345
           46.72162464    0.28463634357546
 s    2 1.00
            2.44747866    0.38985772703801
             1.1660482    0.63355089030013
 s    1 1.00
          270.92857792                   1
 s    1 1.00
           17.32120133                   1
 s    1 1.00
            7.50518249                   1
 s    1 1.00
            0.53243004                   1
 s    1 1.00
            0.11921823                   1
 s    1 1.00
            0.04225089                   1
 p    5 1.00
         4524.59978956  0.0028146526066035
         1117.10671951   0.015786411749766
          383.18041997   0.070309713574534
          150.91292643    0.25732484525004
           63.20731062    0.74016694058612
 p    2 1.00
           27.51598778    0.50655350945781
           12.38754653    0.54061897628066
 p    3 1.00
            2.50956697    0.52194043612711
            1.07890467    0.50540565320498
            0.43388971   0.037298440805319
 p    1 1.00
            5.64019838                   1
 p    1 1.00
              0.819521                   1
 p    1 1.00
            0.42475725                   1
 d    4 1.00
           57.37689087   0.021868805390254
            16.5000892    0.12813186610507
            5.79890555     0.3863088025741
            2.17706897    0.63484874555344
 d    1 1.00
            0.79292368                   1
 d    1 1.00
            0.26063792                   1
 f    1 1.00
            3.44034529                   1
 f    1 1.00
            0.84589748                   1
 g    1 1.00
            2.25265017                   1

7 0
 s    5 1.00
       131334.98114592   0.004900029954672
        20181.90041917   0.018510718616524
         4835.70463137   0.066508300963639
          1439.7381539    0.23442745803641
          476.15426264    0.75920319935527
 s    2 1.00
            3.37495581    -0.6585952448555
            1.51749916   -0.36774281304806
 s    1 1.00
          168.68252004                   1
 s    1 1.00
           62.92253974                   1
 s    1 1.00
           24.33329987                   1
 s    1 1.00
            6.86573753                   1
 s    1 1.00
            0.44651463                   1
 s    1 1.00
            0.16174242                   1
 p    6 1.00
           754.1523594  0.0018880392695063
          193.63344693   0.012415787013658
           64.14106193   0.058846979762122
           23.75714449    0.19568881772651
            9.45234322    0.40880788238935
            3.93996824    0.48080058752795
 p    1 1.00
            1.72080555                   1
 p    1 1.00
            0.77076298                   1
 p    1 1.00
            0.28737379                   1
 p    1 1.00
             0.1011323                   1
 d    1 1.00
              0.264839                   1
 d    1 1.00
              0.781337                   1
 f    1 1.00
               0.58379                   1

8 0
 s    5 1.00
       131334.98114592   0.004900029954672
        20181.90041917   0.018510718616524
         4835.70463137   0.066508300963639
          1439.7381539    0.23442745803641
          476.15426264    0.75920319935527
 s    2 1.00
            3.37495581    -0.6585952448555
            1.51749916   -0.36774281304806
 s    1 1.00
          168.68252004                   1
 s    1 1.00
           62.92253974                   1
 s    1 1.00
           24.33329987                   1
 s    1 1.00
            6.86573753                   1
 s    1 1.00
            0.44651463                   1
 s    1 1.00
            0.16174242                   1
 p    6 1.00
           754.1523594  0.0018880392695063
          193.63344693   0.012415787013658
           64.14106193   0.058846979762122
           23.75714449    0.19568881772651
            9.45234322    0.40880788238935
            3.93996824    0.48080058752795
 p    1 1.00
            1.72080555                   1
 p    1 1.00
            0.77076298                   1
 p    1 1.00
            0.28737379                   1
 p    1 1.00
             0.1011323                   1
 d    1 1.00
              0.264839                   1
 d    1 1.00
              0.781337                   1
 f    1 1.00
               0.58379                   1

9 0
 s    5 1.00
          7615.0599911  0.0022244960654013
         1145.08684615   0.014140944039399
          261.91952431     0.0697499873722
           74.66834196     0.2637788237864
           24.40551202    0.73342883264723
 s    2 1.00
            8.68679013    0.58931282466157
            3.23657623    0.45281759130673
 s    1 1.00
            1.30179999                   1
 s    1 1.00
            0.52768873                   1
 s    1 1.00
            0.15694534                   1
 p    4 1.00
           34.50767936    0.01182072267457
            7.91304441    0.07777295570278
            2.36615458    0.31452402468813
            0.81172425    0.71532158178263
 p    1 1.00
            0.31228882                   1
 p    1 1.00
            0.11400266                   1
 d    1 1.00
              1.154049                   1
 d    1 1.00
             0.3511286                   1
 f    1 1.00
              0.819312                   1

10 0
 s    3 1.00
           34.87758369   0.024909420015424
            5.23397281    0.18219013687198
            1.18503342     0.8591140347034
 s    1 1.00
            0.32833943                   1
 s    1 1.00
            0.11031918                   1
 p    1 1.00
              0.718844                   1
 p    1 1.00
                  0.35                   1
 d    1 1.00
               1.07506                   1

11 0
 s    3 1.00
           34.87758369   0.024909420015424
            5.23397281    0.18219013687198
            1.18503342     0.8591140347034
 s    1 1.00
            0.32833943                   1
 s    1 1.00
            0.11031918                   1
 p    1 1.00
              0.718844                   1
 p    1 1.00
                  0.35                   1
 d    1 1.00
               1.07506                   1

12 0
 s    3 1.00
           34.87758369   0.024909420015424
            5.23397281    0.18219013687198
            1.18503342     0.8591140347034
 s    1 1.00
            0.32833943                   1
 s    1 1.00
            0.11031918                   1
 p    1 1.00
              0.718844                   1
 p    1 1.00
                  0.35                   1
 d    1 1.00
               1.07506                   1

13 0
 s    5 1.00
          7615.0599911  0.0022244960654013
         1145.08684615   0.014140944039399
          261.91952431     0.0697499873722
           74.66834196     0.2637788237864
           24.40551202    0.73342883264723
 s    2 1.00
            8.68679013    0.58931282466157
            3.23657623    0.45281759130673
 s    1 1.00
            1.30179999                   1
 s    1 1.00
            0.52768873                   1
 s    1 1.00
            0.15694534                   1
 p    4 1.00
           34.50767936    0.01182072267457
            7.91304441    0.07777295570278
            2.36615458    0.31452402468813
            0.81172425    0.71532158178263
 p    1 1.00
            0.31228882                   1
 p    1 1.00
            0.11400266                   1
 d    1 1.00
              1.154049                   1
 d    1 1.00
             0.3511286                   1
 f    1 1.00
              0.819312                   1

14 0
 s    3 1.00
           34.87758369   0.024909420015424
            5.23397281    0.18219013687198
            1.18503342     0.8591140347034
 s    1 1.00
            0.32833943                   1
 s    1 1.00
            0.11031918                   1
 p    1 1.00
              0.718844                   1
 p    1 1.00
                  0.35                   1
 d    1 1.00
               1.07506                   1

15 0
 s    3 1.00
           34.87758369   0.024909420015424
            5.23397281    0.18219013687198
            1.18503342     0.8591140347034
 s    1 1.00
            0.32833943                   1
 s    1 1.00
            0.11031918                   1
 p    1 1.00
              0.718844                   1
 p    1 1.00
                  0.35                   1
 d    1 1.00
               1.07506                   1

16 0
 s    3 1.00
           34.87758369   0.024909420015424
            5.23397281    0.18219013687198
            1.18503342     0.8591140347034
 s    1 1.00
            0.32833943                   1
 s    1 1.00
            0.11031918                   1
 p    1 1.00
              0.718844                   1
 p    1 1.00
                  0.35                   1
 d    1 1.00
               1.07506                   1

17 0
 s    5 1.00
          7615.0599911  0.0022244960654013
         1145.08684615   0.014140944039399
          261.91952431     0.0697499873722
           74.66834196     0.2637788237864
           24.40551202    0.73342883264723
 s    2 1.00
            8.68679013    0.58931282466157
            3.23657623    0.45281759130673
 s    1 1.00
            1.30179999                   1
 s    1 1.00
            0.52768873                   1
 s    1 1.00
            0.15694534                   1
 p    4 1.00
           34.50767936    0.01182072267457
            7.91304441    0.07777295570278
            2.36615458    0.31452402468813
            0.81172425    0.71532158178263
 p    1 1.00
            0.31228882                   1
 p    1 1.00
            0.11400266                   1
 d    1 1.00
              1.154049                   1
 d    1 1.00
             0.3511286                   1
 f    1 1.00
              0.819312                   1

18 0
 s    3 1.00
           34.87758369   0.024909420015424
            5.23397281    0.18219013687198
            1.18503342     0.8591140347034
 s    1 1.00
            0.32833943                   1
 s    1 1.00
            0.11031918                   1
 p    1 1.00
              0.718844                   1
 p    1 1.00
                  0.35                   1
 d    1 1.00
               1.07506                   1

19 0
 s    3 1.00
           34.87758369   0.024909420015424
            5.23397281    0.18219013687198
            1.18503342     0.8591140347034
 s    1 1.00
            0.32833943                   1
 s    1 1.00
            0.11031918                   1
 p    1 1.00
              0.718844                   1
 p    1 1.00
                  0.35                   1
 d    1 1.00
               1.07506                   1

20 0
 s    3 1.00
           34.87758369   0.024909420015424
            5.23397281    0.18219013687198
            1.18503342     0.8591140347034
 s    1 1.00
            0.32833943                   1
 s    1 1.00
            0.11031918                   1
 p    1 1.00
              0.718844                   1
 p    1 1.00
                  0.35                   1
 d    1 1.00
               1.07506                   1

21 0
 s    5 1.00
          7615.0599911  0.0022244960654013
         1145.08684615   0.014140944039399
          261.91952431     0.0697499873722
           74.66834196     0.2637788237864
           24.40551202    0.73342883264723
 s    2 1.00
            8.68679013    0.58931282466157
            3.23657623    0.45281759130673
 s    1 1.00
            1.30179999                   1
 s    1 1.00
            0.52768873                   1
 s    1 1.00
            0.15694534                   1
 p    4 1.00
           34.50767936    0.01182072267457
            7.91304441    0.07777295570278
            2.36615458    0.31452402468813
            0.81172425    0.71532158178263
 p    1 1.00
            0.31228882                   1
 p    1 1.00
            0.11400266                   1
 d    1 1.00
              1.154049                   1
 d    1 1.00
             0.3511286                   1
 f    1 1.00
              0.819312                   1

22 0
 s    3 1.00
           34.87758369   0.024909420015424
            5.23397281    0.18219013687198
            1.18503342     0.8591140347034
 s    1 1.00
            0.32833943                   1
 s    1 1.00
            0.11031918                   1
 p    1 1.00
              0.718844                   1
 p    1 1.00
                  0.35                   1
 d    1 1.00
               1.07506                   1

23 0
 s    3 1.00
           34.87758369   0.024909420015424
            5.23397281    0.18219013687198
            1.18503342     0.8591140347034
 s    1 1.00
            0.32833943                   1
 s    1 1.00
            0.11031918                   1
 p    1 1.00
              0.718844                   1
 p    1 1.00
                  0.35                   1
 d    1 1.00
               1.07506                   1

24 0
 s    3 1.00
           34.87758369   0.024909420015424
            5.23397281    0.18219013687198
            1.18503342     0.8591140347034
 s    1 1.00
            0.32833943                   1
 s    1 1.00
            0.11031918                   1
 p    1 1.00
              0.718844                   1
 p    1 1.00
                  0.35                   1
 d    1 1.00
               1.07506                   1

[5d]
[7f]
[9g]

[MO]
 Sym= A
 Ene=               0
 Spin= Alpha
 Occup=    1.00000
   1    -3.4378670513274e-05
   2    -0.00013889323086582
   3    -0.0019284364234052
   4    -6.7020196963685e-05
   5    0.00034647932711551
   6    0.00066067835088796
   7    1.3193288896376e-06
   8    0.00097466503486557
   9    -0.033421085641255
  10    -0.00010951935019044
  11    3.1981319410058e-05
  12    0.00022310170829289
  13    -0.00034682185792098
  14    0.00010035609655346
  15    0.00069919887044868
  16    0.00094150940777662
  17    -0.00024212054676751
  18    -0.0020340106676554
  19    0.00017798031812863
  20    -4.5975684174227e-05
  21    -0.00032748986914299
  22    0.00088335675355041
  23    -0.0002916894700055
  24    -0.0013229727707302
  25    -0.0017629167249656
  26    0.00087546224735493
  27    0.0027595746635332
  28    -0.012716183913859
  29    -0.0014289731607279
  30    0.0010429710618028
  31    0.0011403255872182
  32     0.012367300141657
  33    -0.0072119075133987
  34    -0.00081804260186953
  35    0.00017449233829558
  36    0.00064667152794147
  37    0.0074492531033447
  38     -0.00757861815311
  39    -0.00063435906522954
  40    0.0012969215591152
  41    0.0016197479400992
  42     0.005781626946354
  43    7.2004009403563e-06
  44    6.3397113697621e-06
  45    1.605343805843e-06
  46    -2.2908546637503e-06
  47    -2.6393775583508e-06
  48    6.5617759565591e-06
  49    1.1511882273587e-06
  50    -0.00014315043660278
  51    6.6042865236145e-05
  52    0.00010424687278125
  53    -8.1566397717104e-05
  54    -0.00010923112541056
  55    0.00020693587437518
  56    -0.00026742546530068
  57    8.9578926836176e-06
  58    -1.0281280120549e-05
  59    -5.7418081125001e-07
  60    -7.8268018012637e-06
  61    -8.6313825509551e-06
  62    -4.7367396515692e-06
  63    6.5777589649785e-06
  64    -7.1083398231987e-06
  65    -1.2842947467805e-06
  66    -9.0137814507962e-05
  67    -0.0041023340663758
  68    -0.00020211363349967
  69    -0.00046790954546667
  70    -0.00045261652183415
  71    0.00085862397549192
  72    -0.0056137027445551
  73    -0.0080272445222409
  74    0.0012041681114697
  75    0.0010423470853993
  76    -0.0078562539250715
  77    0.00027623444940115
  78    -0.00024204907533732
  79    -0.00097524050513152
  80    -0.0016709873299855
  81    -9.9067021895867e-05
  82    0.0092937259214355
  83    -0.0015359661628602
  84    -0.0056471742603402
  85     0.017698178733848
  86    -9.3172874850206e-06
  87    0.0044541770665305
  88     0.012695432206567
  89    0.0037242257909593
  90    -0.0022537814285797
  91    0.0020054615370742
  92    0.00072625177663392
  93    3.1386948039528e-05
  94     0.001159769324376
  95    -0.00044533448240409
  96    0.00059862383729216
  97    -0.00064999378288573
  98    0.00043504427805901
  99    -0.00015147440076345
 100    0.00061740714254368
 101    0.00017861702726936
 102    -0.0001975953600246
 103    0.00030273657027725
 104    -2.0267491027284e-06
 105    -4.3133859158858e-05
 106    -2.1228730735345e-06
 107    -0.00043275500651575
 108    -7.4682202191467e-07
 109    -2.28925172214e-05
 110    2.6207729589345e-05
 111    -0.00012985695949671
 112    -0.0022515464204882
 113    0.0036065575438505
 114    -5.1338335979291e-05
 115    -0.00061266595746539
 116    0.00053077041660851
 117    4.9545058071479e-05
 118    -0.00027383599514016
 119    -0.00017776502638805
 120    -0.00016165168942045
 121    0.0013532581340725
 122    0.00022945985363911
 123    0.00096295705425184
 124    -0.00020095735878986
 125    -0.0028411937765784
 126    0.0030068159293502
 127    0.0048089102442337
 128    -0.0029171529980163
 129    0.0013626010487618
 130    0.00035210452243605
 131    4.7679246838078e-05
 132    -0.00081483365013007
 133    0.00025437324680797
 134    -0.00026920661758295
 135    0.00022468439758177
 136    0.00019914088245935
 137    5.2972253402015e-06
 138    5.2746953555399e-05
 139    -3.2360195782181e-06
 140    -0.00011021365221874
 141    -2.0778343775098e-05
 142    -2.4992139445505e-05
 143    -8.4852391631485e-05
 144    3.471808100411e-05
 145    3.4051606670359e-06
 146    5.5196908695592e-06
 147    0.00012438839997232
 148    1.408908002335e-05
 149    2.3708351097054e-05
 150    4.3551013939596e-05
 151    -0.00011693688791506
 152    -0.00028644145647052
 153    0.0025406317978071
 154    0.00059607975679815
 155    -0.00047497264018268
 156    -0.00021091825448152
 157    0.00012935118065143
 158    -0.00025961540170734
 159    4.4595570259193e-05
 160    -0.00080959486210994
 161    0.0012598032436039
 162    1.4559514674697e-05
 163    -0.0011625674918865
 164    -0.00099706038666528
 165    0.00052095795625541
 166    -0.0034181752235011
 167    0.00041181339530432
 168    -0.00021846749379829
 169    0.00074884085170006
 170    -0.00068276942769369
 171    -0.0016691625241126
 172    0.00025911251251128
 173    -0.0011148890633782
 174    6.4391336612628e-05
 175    0.0001213936441654
 176    -6.7678566738624e-05
 177    8.2548050001352e-05
 178    -0.00026384405270172
 179    3.2813095080135e-05
 180    3.8730921975148e-05
 181    -4.95882137972e-05
 182    -6.3101147701971e-05
 183    -0.00017752800283967
 184    1.3668598005119e-05
 185    -0.0001442106472443
 186    -3.293081928462e-05
 187    -0.00078949135285633
 188    -7.8553511082276e-05
 189    -0.00015308859242099
 190    -0.00020685269752964
 191    0.00048134124750492
 192    0.0026745001331592
 193    -0.011960433611679
 194    -0.0013487034098061
 195    -0.0019526141683026
 196    -0.0044897120173626
 197    0.00027776976262954
 198    -0.00032279124167467
 199    -0.00052498372608747
 200    -0.00013737639144004
 201    0.0021394879518701
 202    0.0047159158796057
 203    0.0067728819039166
 204    0.0030615135245389
 205    0.0099931571119792
 206    -0.0033858795197215
 207     0.010089319065997
 208    0.0081256193491195
 209    0.00069669034786833
 210    0.00036912032418739
 211    -0.00072851427433423
 212    0.00044098402459542
 213    -0.0022043383666238
 214    -0.00037557804299269
 215    -0.0001559984556746
 216    -0.00011409377320491
 217    -0.00040882203869803
 218    -0.0001561513128236
 219    -7.3339900563109e-06
 220    -0.00035442641225876
 221    -8.7174763748128e-05
 222    -0.00012446989236591
 223    -0.0002818915295634
 224    -3.2481792435797e-05
 225    8.3148953775255e-05
 226    9.0377160300255e-05
 227    0.00038314251733623
 228    0.0071592002922728
 229    0.00017412416926818
 230    -0.0011177259041401
 231    -0.001953233181523
 232    0.0058315131236656
 233    -0.025456744909772
 234     0.074449428264261
 235    -0.00096172019150224
 236    0.00039527769762078
 237    -0.0015917637485903
 238    -0.0029734874227325
 239    0.0012130877684125
 240    -0.0049068387619525
 241    0.0096840737113727
 242    -0.004110660136425
 243     0.015031961672353
 244     0.001225650471505
 245    -0.00046154473897892
 246     0.001913085560254
 247    0.0027769206782775
 248    -0.0006836617544746
 249    0.0043305857799916
 250    -0.0062790889597974
 251    0.0020063108861987
 252    -0.0081050874758356
 253    -0.037683100033301
 254     0.040473806485657
 255    -0.010578485491655
 256    -0.0057656501199463
 257    0.0049597102538348
 258    -0.020051837596423