[Molden Format]
made by pyscf v[2.4.0]
[Atoms] (AU)
Fe   1   26     9.86437037022962     1.98421243079332   -15.02332269029224
S   2   16     7.29434284082114    -0.52912331487822   -17.12091868855946
S   3   16     9.44863062282531     1.79523981833681   -10.69584986503825
S   4   16     9.01399361417534     6.00932907611690   -16.51620632869864
S   5   16    13.66271988060540     0.52912331487822   -15.83590492385522
Fe   6   26    11.11158961244256    -1.98421243079332   -17.93350092212244
S   7   16    11.52732935984688    -1.79523981833681   -22.27987100862208
S   8   16    11.96196636849684    -6.00932907611690   -16.45951454496169
C   9   6    11.33835674739037     8.20141138061237   -15.43906243769655
H   10   1    12.20763076469030     9.08958265915795   -17.02643238233121
H   11   1    10.45018546884479     9.59980871279051   -14.26743224046622
H   12   1    12.73675407956852     7.21875379583854   -14.36191854669447
C   13   6     6.29278799480166     2.47554122318023    -9.78878132524702
H   14   1     5.12115779757132     0.86927401729993   -10.14782928891438
H   15   1     6.23609621106470     2.91017823183020    -7.80456889445371
H   16   1     5.61248658995823     4.06291116781488   -10.82813069375780
C   17   6     9.63760323528181    -8.20141138061237   -17.53665843596377
H   18   1    10.50687725258174    -9.54311692905356   -18.76498041693106
H   19   1     8.82502100171884    -9.14627444289490   -15.94928849132912
H   20   1     8.20141138061237    -7.19985653459289   -18.53821328198326
C   21   6    14.68317198787053    -2.47554122318023   -23.18693954841331
H   22   1    14.81545281659008    -2.55113026816283   -25.20894650169792
H   23   1    15.91149396883782    -1.02045210726513   -22.48774088232424
H   24   1    15.23119256399440    -4.25188378027139   -22.41215183734163
[GTO]
1 0
 s    6 1.00
       489363.91999756   0.003350001379677
        76936.88249538   0.010014735201831
        19111.87896905   0.029489541326053
         5953.14711781   0.083206542360293
         2026.23124631    0.25505082434793
          720.41679911    0.71419663548118
 s    2 1.00
          109.11058782    0.74093523374345
           46.72162464    0.28463634357546
 s    2 1.00
            2.44747866    0.38985772703801
             1.1660482    0.63355089030013
 s    1 1.00
          270.92857792                   1
 s    1 1.00
           17.32120133                   1
 s    1 1.00
            7.50518249                   1
 s    1 1.00
            0.53243004                   1
 s    1 1.00
            0.11921823                   1
 s    1 1.00
            0.04225089                   1
 p    5 1.00
         4524.59978956  0.0028146526066035
         1117.10671951   0.015786411749766
          383.18041997   0.070309713574534
          150.91292643    0.25732484525004
           63.20731062    0.74016694058612
 p    2 1.00
           27.51598778    0.50655350945781
           12.38754653    0.54061897628066
 p    3 1.00
            2.50956697    0.52194043612711
            1.07890467    0.50540565320498
            0.43388971   0.037298440805319
 p    1 1.00
            5.64019838                   1
 p    1 1.00
              0.819521                   1
 p    1 1.00
            0.42475725                   1
 d    4 1.00
           57.37689087   0.021868805390254
            16.5000892    0.12813186610507
            5.79890555     0.3863088025741
            2.17706897    0.63484874555344
 d    1 1.00
            0.79292368                   1
 d    1 1.00
            0.26063792                   1
 f    1 1.00
            3.44034529                   1
 f    1 1.00
            0.84589748                   1
 g    1 1.00
            2.25265017                   1

2 0
 s    5 1.00
       131334.98114592   0.004900029954672
        20181.90041917   0.018510718616524
         4835.70463137   0.066508300963639
          1439.7381539    0.23442745803641
          476.15426264    0.75920319935527
 s    2 1.00
            3.37495581    -0.6585952448555
            1.51749916   -0.36774281304806
 s    1 1.00
          168.68252004                   1
 s    1 1.00
           62.92253974                   1
 s    1 1.00
           24.33329987                   1
 s    1 1.00
            6.86573753                   1
 s    1 1.00
            0.44651463                   1
 s    1 1.00
            0.16174242                   1
 p    6 1.00
           754.1523594  0.0018880392695063
          193.63344693   0.012415787013658
           64.14106193   0.058846979762122
           23.75714449    0.19568881772651
            9.45234322    0.40880788238935
            3.93996824    0.48080058752795
 p    1 1.00
            1.72080555                   1
 p    1 1.00
            0.77076298                   1
 p    1 1.00
            0.28737379                   1
 p    1 1.00
             0.1011323                   1
 d    1 1.00
              0.264839                   1
 d    1 1.00
              0.781337                   1
 f    1 1.00
               0.58379                   1

3 0
 s    5 1.00
       131334.98114592   0.004900029954672
        20181.90041917   0.018510718616524
         4835.70463137   0.066508300963639
          1439.7381539    0.23442745803641
          476.15426264    0.75920319935527
 s    2 1.00
            3.37495581    -0.6585952448555
            1.51749916   -0.36774281304806
 s    1 1.00
          168.68252004                   1
 s    1 1.00
           62.92253974                   1
 s    1 1.00
           24.33329987                   1
 s    1 1.00
            6.86573753                   1
 s    1 1.00
            0.44651463                   1
 s    1 1.00
            0.16174242                   1
 p    6 1.00
           754.1523594  0.0018880392695063
          193.63344693   0.012415787013658
           64.14106193   0.058846979762122
           23.75714449    0.19568881772651
            9.45234322    0.40880788238935
            3.93996824    0.48080058752795
 p    1 1.00
            1.72080555                   1
 p    1 1.00
            0.77076298                   1
 p    1 1.00
            0.28737379                   1
 p    1 1.00
             0.1011323                   1
 d    1 1.00
              0.264839                   1
 d    1 1.00
              0.781337                   1
 f    1 1.00
               0.58379                   1

4 0
 s    5 1.00
       131334.98114592   0.004900029954672
        20181.90041917   0.018510718616524
         4835.70463137   0.066508300963639
          1439.7381539    0.23442745803641
          476.15426264    0.75920319935527
 s    2 1.00
            3.37495581    -0.6585952448555
            1.51749916   -0.36774281304806
 s    1 1.00
          168.68252004                   1
 s    1 1.00
           62.92253974                   1
 s    1 1.00
           24.33329987                   1
 s    1 1.00
            6.86573753                   1
 s    1 1.00
            0.44651463                   1
 s    1 1.00
            0.16174242                   1
 p    6 1.00
           754.1523594  0.0018880392695063
          193.63344693   0.012415787013658
           64.14106193   0.058846979762122
           23.75714449    0.19568881772651
            9.45234322    0.40880788238935
            3.93996824    0.48080058752795
 p    1 1.00
            1.72080555                   1
 p    1 1.00
            0.77076298                   1
 p    1 1.00
            0.28737379                   1
 p    1 1.00
             0.1011323                   1
 d    1 1.00
              0.264839                   1
 d    1 1.00
              0.781337                   1
 f    1 1.00
               0.58379                   1

5 0
 s    5 1.00
       131334.98114592   0.004900029954672
        20181.90041917   0.018510718616524
         4835.70463137   0.066508300963639
          1439.7381539    0.23442745803641
          476.15426264    0.75920319935527
 s    2 1.00
            3.37495581    -0.6585952448555
            1.51749916   -0.36774281304806
 s    1 1.00
          168.68252004                   1
 s    1 1.00
           62.92253974                   1
 s    1 1.00
           24.33329987                   1
 s    1 1.00
            6.86573753                   1
 s    1 1.00
            0.44651463                   1
 s    1 1.00
            0.16174242                   1
 p    6 1.00
           754.1523594  0.0018880392695063
          193.63344693   0.012415787013658
           64.14106193   0.058846979762122
           23.75714449    0.19568881772651
            9.45234322    0.40880788238935
            3.93996824    0.48080058752795
 p    1 1.00
            1.72080555                   1
 p    1 1.00
            0.77076298                   1
 p    1 1.00
            0.28737379                   1
 p    1 1.00
             0.1011323                   1
 d    1 1.00
              0.264839                   1
 d    1 1.00
              0.781337                   1
 f    1 1.00
               0.58379                   1

6 0
 s    6 1.00
       489363.91999756   0.003350001379677
        76936.88249538   0.010014735201831
        19111.87896905   0.029489541326053
         5953.14711781   0.083206542360293
         2026.23124631    0.25505082434793
          720.41679911    0.71419663548118
 s    2 1.00
          109.11058782    0.74093523374345
           46.72162464    0.28463634357546
 s    2 1.00
            2.44747866    0.38985772703801
             1.1660482    0.63355089030013
 s    1 1.00
          270.92857792                   1
 s    1 1.00
           17.32120133                   1
 s    1 1.00
            7.50518249                   1
 s    1 1.00
            0.53243004                   1
 s    1 1.00
            0.11921823                   1
 s    1 1.00
            0.04225089                   1
 p    5 1.00
         4524.59978956  0.0028146526066035
         1117.10671951   0.015786411749766
          383.18041997   0.070309713574534
          150.91292643    0.25732484525004
           63.20731062    0.74016694058612
 p    2 1.00
           27.51598778    0.50655350945781
           12.38754653    0.54061897628066
 p    3 1.00
            2.50956697    0.52194043612711
            1.07890467    0.50540565320498
            0.43388971   0.037298440805319
 p    1 1.00
            5.64019838                   1
 p    1 1.00
              0.819521                   1
 p    1 1.00
            0.42475725                   1
 d    4 1.00
           57.37689087   0.021868805390254
            16.5000892    0.12813186610507
            5.79890555     0.3863088025741
            2.17706897    0.63484874555344
 d    1 1.00
            0.79292368                   1
 d    1 1.00
            0.26063792                   1
 f    1 1.00
            3.44034529                   1
 f    1 1.00
            0.84589748                   1
 g    1 1.00
            2.25265017                   1

7 0
 s    5 1.00
       131334.98114592   0.004900029954672
        20181.90041917   0.018510718616524
         4835.70463137   0.066508300963639
          1439.7381539    0.23442745803641
          476.15426264    0.75920319935527
 s    2 1.00
            3.37495581    -0.6585952448555
            1.51749916   -0.36774281304806
 s    1 1.00
          168.68252004                   1
 s    1 1.00
           62.92253974                   1
 s    1 1.00
           24.33329987                   1
 s    1 1.00
            6.86573753                   1
 s    1 1.00
            0.44651463                   1
 s    1 1.00
            0.16174242                   1
 p    6 1.00
           754.1523594  0.0018880392695063
          193.63344693   0.012415787013658
           64.14106193   0.058846979762122
           23.75714449    0.19568881772651
            9.45234322    0.40880788238935
            3.93996824    0.48080058752795
 p    1 1.00
            1.72080555                   1
 p    1 1.00
            0.77076298                   1
 p    1 1.00
            0.28737379                   1
 p    1 1.00
             0.1011323                   1
 d    1 1.00
              0.264839                   1
 d    1 1.00
              0.781337                   1
 f    1 1.00
               0.58379                   1

8 0
 s    5 1.00
       131334.98114592   0.004900029954672
        20181.90041917   0.018510718616524
         4835.70463137   0.066508300963639
          1439.7381539    0.23442745803641
          476.15426264    0.75920319935527
 s    2 1.00
            3.37495581    -0.6585952448555
            1.51749916   -0.36774281304806
 s    1 1.00
          168.68252004                   1
 s    1 1.00
           62.92253974                   1
 s    1 1.00
           24.33329987                   1
 s    1 1.00
            6.86573753                   1
 s    1 1.00
            0.44651463                   1
 s    1 1.00
            0.16174242                   1
 p    6 1.00
           754.1523594  0.0018880392695063
          193.63344693   0.012415787013658
           64.14106193   0.058846979762122
           23.75714449    0.19568881772651
            9.45234322    0.40880788238935
            3.93996824    0.48080058752795
 p    1 1.00
            1.72080555                   1
 p    1 1.00
            0.77076298                   1
 p    1 1.00
            0.28737379                   1
 p    1 1.00
             0.1011323                   1
 d    1 1.00
              0.264839                   1
 d    1 1.00
              0.781337                   1
 f    1 1.00
               0.58379                   1

9 0
 s    5 1.00
          7615.0599911  0.0022244960654013
         1145.08684615   0.014140944039399
          261.91952431     0.0697499873722
           74.66834196     0.2637788237864
           24.40551202    0.73342883264723
 s    2 1.00
            8.68679013    0.58931282466157
            3.23657623    0.45281759130673
 s    1 1.00
            1.30179999                   1
 s    1 1.00
            0.52768873                   1
 s    1 1.00
            0.15694534                   1
 p    4 1.00
           34.50767936    0.01182072267457
            7.91304441    0.07777295570278
            2.36615458    0.31452402468813
            0.81172425    0.71532158178263
 p    1 1.00
            0.31228882                   1
 p    1 1.00
            0.11400266                   1
 d    1 1.00
              1.154049                   1
 d    1 1.00
             0.3511286                   1
 f    1 1.00
              0.819312                   1

10 0
 s    3 1.00
           34.87758369   0.024909420015424
            5.23397281    0.18219013687198
            1.18503342     0.8591140347034
 s    1 1.00
            0.32833943                   1
 s    1 1.00
            0.11031918                   1
 p    1 1.00
              0.718844                   1
 p    1 1.00
                  0.35                   1
 d    1 1.00
               1.07506                   1

11 0
 s    3 1.00
           34.87758369   0.024909420015424
            5.23397281    0.18219013687198
            1.18503342     0.8591140347034
 s    1 1.00
            0.32833943                   1
 s    1 1.00
            0.11031918                   1
 p    1 1.00
              0.718844                   1
 p    1 1.00
                  0.35                   1
 d    1 1.00
               1.07506                   1

12 0
 s    3 1.00
           34.87758369   0.024909420015424
            5.23397281    0.18219013687198
            1.18503342     0.8591140347034
 s    1 1.00
            0.32833943                   1
 s    1 1.00
            0.11031918                   1
 p    1 1.00
              0.718844                   1
 p    1 1.00
                  0.35                   1
 d    1 1.00
               1.07506                   1

13 0
 s    5 1.00
          7615.0599911  0.0022244960654013
         1145.08684615   0.014140944039399
          261.91952431     0.0697499873722
           74.66834196     0.2637788237864
           24.40551202    0.73342883264723
 s    2 1.00
            8.68679013    0.58931282466157
            3.23657623    0.45281759130673
 s    1 1.00
            1.30179999                   1
 s    1 1.00
            0.52768873                   1
 s    1 1.00
            0.15694534                   1
 p    4 1.00
           34.50767936    0.01182072267457
            7.91304441    0.07777295570278
            2.36615458    0.31452402468813
            0.81172425    0.71532158178263
 p    1 1.00
            0.31228882                   1
 p    1 1.00
            0.11400266                   1
 d    1 1.00
              1.154049                   1
 d    1 1.00
             0.3511286                   1
 f    1 1.00
              0.819312                   1

14 0
 s    3 1.00
           34.87758369   0.024909420015424
            5.23397281    0.18219013687198
            1.18503342     0.8591140347034
 s    1 1.00
            0.32833943                   1
 s    1 1.00
            0.11031918                   1
 p    1 1.00
              0.718844                   1
 p    1 1.00
                  0.35                   1
 d    1 1.00
               1.07506                   1

15 0
 s    3 1.00
           34.87758369   0.024909420015424
            5.23397281    0.18219013687198
            1.18503342     0.8591140347034
 s    1 1.00
            0.32833943                   1
 s    1 1.00
            0.11031918                   1
 p    1 1.00
              0.718844                   1
 p    1 1.00
                  0.35                   1
 d    1 1.00
               1.07506                   1

16 0
 s    3 1.00
           34.87758369   0.024909420015424
            5.23397281    0.18219013687198
            1.18503342     0.8591140347034
 s    1 1.00
            0.32833943                   1
 s    1 1.00
            0.11031918                   1
 p    1 1.00
              0.718844                   1
 p    1 1.00
                  0.35                   1
 d    1 1.00
               1.07506                   1

17 0
 s    5 1.00
          7615.0599911  0.0022244960654013
         1145.08684615   0.014140944039399
          261.91952431     0.0697499873722
           74.66834196     0.2637788237864
           24.40551202    0.73342883264723
 s    2 1.00
            8.68679013    0.58931282466157
            3.23657623    0.45281759130673
 s    1 1.00
            1.30179999                   1
 s    1 1.00
            0.52768873                   1
 s    1 1.00
            0.15694534                   1
 p    4 1.00
           34.50767936    0.01182072267457
            7.91304441    0.07777295570278
            2.36615458    0.31452402468813
            0.81172425    0.71532158178263
 p    1 1.00
            0.31228882                   1
 p    1 1.00
            0.11400266                   1
 d    1 1.00
              1.154049                   1
 d    1 1.00
             0.3511286                   1
 f    1 1.00
              0.819312                   1

18 0
 s    3 1.00
           34.87758369   0.024909420015424
            5.23397281    0.18219013687198
            1.18503342     0.8591140347034
 s    1 1.00
            0.32833943                   1
 s    1 1.00
            0.11031918                   1
 p    1 1.00
              0.718844                   1
 p    1 1.00
                  0.35                   1
 d    1 1.00
               1.07506                   1

19 0
 s    3 1.00
           34.87758369   0.024909420015424
            5.23397281    0.18219013687198
            1.18503342     0.8591140347034
 s    1 1.00
            0.32833943                   1
 s    1 1.00
            0.11031918                   1
 p    1 1.00
              0.718844                   1
 p    1 1.00
                  0.35                   1
 d    1 1.00
               1.07506                   1

20 0
 s    3 1.00
           34.87758369   0.024909420015424
            5.23397281    0.18219013687198
            1.18503342     0.8591140347034
 s    1 1.00
            0.32833943                   1
 s    1 1.00
            0.11031918                   1
 p    1 1.00
              0.718844                   1
 p    1 1.00
                  0.35                   1
 d    1 1.00
               1.07506                   1

21 0
 s    5 1.00
          7615.0599911  0.0022244960654013
         1145.08684615   0.014140944039399
          261.91952431     0.0697499873722
           74.66834196     0.2637788237864
           24.40551202    0.73342883264723
 s    2 1.00
            8.68679013    0.58931282466157
            3.23657623    0.45281759130673
 s    1 1.00
            1.30179999                   1
 s    1 1.00
            0.52768873                   1
 s    1 1.00
            0.15694534                   1
 p    4 1.00
           34.50767936    0.01182072267457
            7.91304441    0.07777295570278
            2.36615458    0.31452402468813
            0.81172425    0.71532158178263
 p    1 1.00
            0.31228882                   1
 p    1 1.00
            0.11400266                   1
 d    1 1.00
              1.154049                   1
 d    1 1.00
             0.3511286                   1
 f    1 1.00
              0.819312                   1

22 0
 s    3 1.00
           34.87758369   0.024909420015424
            5.23397281    0.18219013687198
            1.18503342     0.8591140347034
 s    1 1.00
            0.32833943                   1
 s    1 1.00
            0.11031918                   1
 p    1 1.00
              0.718844                   1
 p    1 1.00
                  0.35                   1
 d    1 1.00
               1.07506                   1

23 0
 s    3 1.00
           34.87758369   0.024909420015424
            5.23397281    0.18219013687198
            1.18503342     0.8591140347034
 s    1 1.00
            0.32833943                   1
 s    1 1.00
            0.11031918                   1
 p    1 1.00
              0.718844                   1
 p    1 1.00
                  0.35                   1
 d    1 1.00
               1.07506                   1

24 0
 s    3 1.00
           34.87758369   0.024909420015424
            5.23397281    0.18219013687198
            1.18503342     0.8591140347034
 s    1 1.00
            0.32833943                   1
 s    1 1.00
            0.11031918                   1
 p    1 1.00
              0.718844                   1
 p    1 1.00
                  0.35                   1
 d    1 1.00
               1.07506                   1

[5d]
[7f]
[9g]

[MO]
 Sym= A
 Ene=               0
 Spin= Alpha
 Occup=    1.00000
   1    -0.0027267379824305
   2    -0.011233201431844
   3     -0.16409820434388
   4    -0.0052801620614498
   5     0.030281150463717
   6      0.05462040981213
   7    -0.025467754659553
   8      0.17195506930898
   9    -0.020722713585137
  10    0.0088143703881432
  11    -0.0032073881619801
  12    -0.0019211980307071
  13     0.027162623220064
  14    -0.0099037200764705
  15    -0.0059504140801411
  16     -0.09136139833352
  17     0.032683731624443
  18     0.019159772769611
  19    -0.010866840278984
  20    0.0040375456197607
  21    0.0025012943248579
  22    -0.019482596119703
  23    0.0078350651908077
  24    0.0058497275535881
  25     0.050342766191311
  26    -0.018442538398141
  27    -0.012485827074643
  28    -0.099789984123036
  29    -0.082231320385252
  30     0.020487881668075
  31      0.14330280667885
  32      -0.1376536286372
  33    -0.063340480734851
  34    -0.051767865120316
  35     0.012364683316089
  36     0.091031912421002
  37    -0.086528873260625
  38    -0.037731700738896
  39    -0.030045407577765
  40     0.011019567494336
  41     0.052780697921278
  42    -0.052115486296518
  43    0.00013604342986101
  44    -0.00022493036735527
  45    9.9219673664296e-05
  46    -0.00014807819656028
  47    0.00014854073892782
  48    0.00014999070003791
  49    -0.00033821950058603
  50    0.00091397380163352
  51    -0.0019406769445855
  52    0.00055635834789177
  53    -0.0005988950341655
  54    0.0013784108465436
  55    0.0015117615993192
  56    -0.0022603825433953
  57    0.00010745729057169
  58    0.00013046568623519
  59    -3.98935110939e-05
  60    -0.00016996430290573
  61    8.1677257328952e-05
  62    -2.4493462280091e-05
  63    7.5128895243115e-05
  64    0.00010789967205781
  65    -0.00025286938396939
  66    1.7560456935332e-05
  67    -0.00012455562407954
  68    4.6846229338832e-05
  69    6.6137488246892e-05
  70    0.00015504455163634
  71    -0.00043431789027899
  72    -0.0046716797972207
  73    0.0019892340557807
  74    0.0004843947126357
  75    0.0060842011640334
  76    0.0045695980198151
  77    0.00093839549225064
  78    0.0002350353992525
  79    0.00019767623722939
  80    -0.0038052439558706
  81    -0.005402037531293
  82    -0.0041233576153241
  83    0.0025430032791216
  84    -0.018307124651531
  85    -0.013879147636363
  86    -0.0049631090724976
  87    -0.025080181485559
  88    -0.018155438130521
  89    -0.0043648255701643
  90    -0.0027235684622176
  91    -0.0028247089714037
  92    0.0081837125625623
  93    -0.0049273871959449
  94    -0.00043705199147722
  95     0.001271257365191
  96    -0.00073467917644265
  97    0.0013484829930654
  98    0.0017045110486058
  99    7.4360424767599e-05
 100    -0.00079624909307596
 101    -4.729039560756e-05
 102    0.00018771572782781
 103    -0.00092810539773275
 104    0.0013856041135034
 105    -0.0001076965051879
 106    -7.33619696922e-05
 107    -0.0034512785657761
 108    -0.00016925341419941
 109    -0.00037013647050083
 110    -0.00041404580134363
 111    0.00088906586282902
 112    -0.0043109997163485
 113    -0.019787246572259
 114    -0.0016457395221806
 115    0.00019264453911095
 116    -0.0031306511562229
 117    0.00018102600356474
 118    -0.0001799886531717
 119    -0.00070718952856001
 120    0.00042319835305287
 121    0.00048329469756107
 122    0.0049700859503281
 123    0.0056090729634779
 124    -0.0015655394125195
 125    0.0060235981772886
 126    0.00060799012391266
 127    -0.00071648391883184
 128     0.026212555947101
 129    -0.0025164250708718
 130    -0.0059943728587969
 131    0.0026382654440903
 132    0.0030911418343934
 133    -0.001378577689533
 134    0.00033205100809563
 135    -0.0011952536373378
 136    -6.1090273522119e-05
 137    0.0016816437385261
 138    -0.0011156042078426
 139    0.00053075776270099
 140    0.00015951814673424
 141    -0.00031970319335968
 142    -0.00054404569294365
 143    0.00050121941463067
 144    0.00019276348681654
 145    -7.9873954919993e-05
 146     -7.5703054252e-06
 147    -0.0002038951384225
 148    -2.2960329846661e-05
 149    -2.3334654312464e-05
 150    -9.4444174960892e-05
 151    0.00030547921305052
 152    0.0018713966067289
 153    -0.021751496329464
 154    -0.0016903152576483
 155    -0.0017691301399083
 156    0.0053419892423797
 157    4.1074919789961e-06
 158    -0.00035719620460551
 159    0.00066648851286951
 160    0.0011673910171835
 161    0.0029558959244349
 162    -0.0061814785041533
 163    0.0027590431507974
 164    0.0040885402862943
 165    -0.012104530205921
 166    -0.0029051021030575
 167     0.017208576282218
 168    -0.019801289660298
 169    -0.0016061394326588
 170    -0.0025345375275439
 171    0.00083891687388995
 172    0.0020651047200556
 173    -0.0035687953571726
 174    -0.00062643469424323
 175    -0.00041332141706621
 176    -0.0015583331971107
 177    -0.0012157714140422
 178    7.8645268290624e-05
 179    3.8150083690871e-05
 180    -0.00042528232086025
 181    0.00027563539824106
 182    -4.2378646063351e-05
 183    3.8002536641904e-05
 184    3.8811413501127e-05
 185    -0.00070480499241569
 186    0.0024006909171538
 187      0.10546895025035
 188    0.0053633949362548
 189      0.01249074679732
 190     0.011857555771808
 191    -0.022178630125061
 192      0.11157297930205
 193      0.12539161300273
 194      0.15670242142139
 195    -0.090155117832518
 196    -0.054762975589186
 197     0.018721933438282
 198    -0.011045023597867
 199    -0.0068528641092233
 200     -0.16466516782962
 201     0.097248925508809
 202      0.05978036459962
 203     -0.34089364907894
 204       0.1947507952778
 205       0.1170130538204
 206     -0.21957791290593
 207      0.12689058466829
 208     0.080271804188916
 209    -0.023414330877391
 210    -0.0074208836637081
 211    -0.0010492225897114
 212     0.037971430036166
 213    -0.018555456894666
 214    -0.0084241258189445
 215    -0.0043210337311038
 216    -0.0004201457719531
 217     0.013907849410148
 218    -0.0088970548656049
 219    -0.0026253760278684
 220    0.0062726402550863
 221    -0.00049577083084568
 222    -0.00068006295509805
 223    -0.0037495274626123
 224    -0.0054504621432685
 225    0.0043384194077823
 226       -0.000247688224
 227     -0.00101719586758
 228    -0.014652240206052
 229    -0.00048101361583978
 230    0.0027210660986706
 231    0.0050140377562237
 232    0.00093270312091776
 233    -0.00016244046948397
 234    -0.0086120925280246
 235    -0.001907378252773
 236    0.0027211706853374
 237    0.0019052252480904
 238    -0.0059424885833715
 239    0.0084032451466775
 240     0.005892603868817
 241     0.018379956949856
 242    -0.027130667884573
 243    -0.018776444539343
 244    0.0026481347440777
 245    -0.0034070933074915
 246    -0.0024261284886668
 247    0.0084668536721648
 248     -0.00713159297609
 249    -0.0056249372265109
 250    -0.017243630247042
 251     0.015342687640113
 252     0.011732055655843
 253     0.030225665029456
 254    -0.027153846170136
 255     0.046682058892434
 256    -0.091337880457765
 257    -0.021581529564232
 258     0.017927635602973
 259    -0.016027536950668
 260      0.02963054426625
 261    -0.055459632180041
 262    -0.012590220971593
 263     0.019251461920109